 ANIMSTEPS   8
 CRYSTAL 
 PRIMVEC 
  5.7070703592  0.0000000000  0.0000000000
  0.0000000000  2.8535351796  0.0000000000
  0.0000000000  0.0000000000  7.1338379490
 PRIMCOORD   1
    6  1
Al    0.0000000000    0.0000000000    0.0000000000    0.0000000000    0.0000000000    0.0000000000
Al    2.8535351796    0.0000000000    0.0000000000    0.0000000000    0.0000000000    0.0000000000
Al    1.4267675898    1.4267675898    2.2977728151    0.0000000000    0.0000000000   -0.0000113262
Al    4.2803027694    1.4267675898    2.2937702983    0.0000000000    0.0000000000    0.0000567792
 H    1.0440652113    1.4267675898    4.7371108174   -0.0008179124    0.0000000000   -0.0000677658
 H    1.8094699683    1.4267675898    4.7371108174    0.0008179124    0.0000000000   -0.0000677658
 PRIMCOORD   2
    6  1
Al    0.0000000000    0.0000000000    0.0000000000    0.0000000000    0.0000000000    0.0000000000
Al    2.8535351796    0.0000000000    0.0000000000    0.0000000000    0.0000000000    0.0000000000
Al    1.4267709182    1.4267675898    2.2202641899    0.0000000000    0.0000000000   -0.0033392450
Al    4.2802994410    1.4267675898    2.3076258156    0.0000000000    0.0000000000    0.0027280322
 H    1.0404883437    1.4267675898    4.3679649861    0.0010719170    0.0000000000    0.0122536047
 H    1.8130468359    1.4267675898    4.3679729546   -0.0010719170    0.0000000000    0.0122536047
 PRIMCOORD   3
    6  1
Al    0.0000000000    0.0000000000    0.0000000000    0.0000000000    0.0000000000    0.0000000000
Al    2.8535351796    0.0000000000    0.0000000000    0.0000000000    0.0000000000    0.0000000000
Al    1.4267786785    1.4267675898    2.1513068140    0.0000000000    0.0000000000   -0.0198403156
Al    4.2802916807    1.4267675898    2.3106982511    0.0000000000    0.0000000000    0.0022933069
 H    1.0126755496    1.4267675898    4.0335646212    0.0302973969    0.0000000000    0.0225912738
 H    1.8408596300    1.4267675898    4.0335911684   -0.0302973969    0.0000000000    0.0225912738
 PRIMCOORD   4
    6  1
Al    0.0000000000    0.0000000000    0.0000000000    0.0000000000    0.0000000000    0.0000000000
Al    2.8535351796    0.0000000000    0.0000000000    0.0000000000    0.0000000000    0.0000000000
Al    1.4267811086    1.4267675898    2.2572623762    0.0000000000    0.0000000000   -0.0063568113
Al    4.2802892506    1.4267675898    2.3108541123    0.0000000000    0.0000000000    0.0059447638
 H    0.7862796919    1.4267675898    3.8463308704    0.0062067385    0.0000000000   -0.0005035402
 H    2.0672554877    1.4267675898    3.8463632353   -0.0062067385    0.0000000000   -0.0005035402
 PRIMCOORD   5
    6  1
Al    0.0000000000    0.0000000000    0.0000000000    0.0000000000    0.0000000000    0.0000000000
Al    2.8535351796    0.0000000000    0.0000000000    0.0000000000    0.0000000000    0.0000000000
Al    1.4267816546    1.4267675898    2.3043874136    0.0000000000    0.0000000000    0.0058539107
Al    4.2802887046    1.4267675898    2.3418840286    0.0000000000    0.0000000000    0.0108299389
 H    0.6035632788    1.4267675898    3.7701730146   -0.0328323091    0.0000000000   -0.0158341406
 H    2.2499719008    1.4267675898    3.7702066866    0.0328323091    0.0000000000   -0.0158341406
 PRIMCOORD   6
    6  1
Al    0.0000000000    0.0000000000    0.0000000000    0.0000000000    0.0000000000    0.0000000000
Al    2.8535351796    0.0000000000    0.0000000000    0.0000000000    0.0000000000    0.0000000000
Al    1.4267831299    1.4267675898    2.3158362389    0.0000000000    0.0000000000    0.0017291791
Al    4.2802872293    1.4267675898    2.3900154850    0.0000000000    0.0000000000    0.0120779916
 H    0.4081083686    1.4267675898    3.6561411910   -0.0348958801    0.0000000000   -0.0202770853
 H    2.4454268110    1.4267675898    3.6561783949    0.0348958801    0.0000000000   -0.0202770853
 PRIMCOORD   7
    6  1
Al    0.0000000000    0.0000000000    0.0000000000    0.0000000000    0.0000000000    0.0000000000
Al    2.8535351796    0.0000000000    0.0000000000    0.0000000000    0.0000000000    0.0000000000
Al    1.4267882137    1.4267675898    2.2581864727    0.0000000000    0.0000000000   -0.0043981149
Al    4.2802824646    1.4267675898    2.3920495780    0.0000000000    0.0000000000    0.0069238719
 H    0.1905854594    1.4267675898    3.4667286975   -0.0187022889    0.0000000000   -0.0135114586
 H    2.6629495402    1.4267675898    3.4667828432    0.0187022889    0.0000000000   -0.0135114586
 PRIMCOORD   8
    6  1
Al    0.0000000000    0.0000000000    0.0000000000    0.0000000000    0.0000000000    0.0000000000
Al    2.8535351796    0.0000000000    0.0000000000    0.0000000000    0.0000000000    0.0000000000
Al    1.4268093427    1.4267675898    2.1875323902   -0.0000122460    0.0000000000    0.0000036783
Al    4.2802610165    1.4267675898    2.1875323902    0.0000122460    0.0000000000    0.0000036783
 H    0.0000000000    1.4267675898    3.2466430655    0.0000000000    0.0000000000    0.0000143765
 H    2.8535351796    1.4267675898    3.2467430248    0.0000000000    0.0000000000    0.0000127238
