### Running on host: nsc-gsv001.ijs.si

     Program NEB v.6.4.1 starts on 14Sep2019 at 16:57:45 

     This program is part of the open-source Quantum ESPRESSO suite
     for quantum simulation of materials; please cite
         "P. Giannozzi et al., J. Phys.:Condens. Matter 21 395502 (2009);
         "P. Giannozzi et al., J. Phys.:Condens. Matter 29 465901 (2017);
          URL http://www.quantum-espresso.org", 
     in publications or presentations arising from this work. More details at
     http://www.quantum-espresso.org/quote

     Parallel version (MPI), running on     8 processors

     MPI processes distributed on     1 nodes
     R & G space division:  proc/nbgrp/npool/nimage =       8

     parsing_file_name: neb.auto.in
     Reading input from pw_1.in
               file Al.pbe-n-kjpaw_psl.1.0.0.UPF: wavefunction(s)  3S 3P renormalized
               file H.pbe-rrkjus.UPF: wavefunction(s)  1S renormalized
     Reading input from pw_2.in
               file Al.pbe-n-kjpaw_psl.1.0.0.UPF: wavefunction(s)  3S 3P renormalized
               file H.pbe-rrkjus.UPF: wavefunction(s)  1S renormalized
     Reading input from pw_3.in
               file Al.pbe-n-kjpaw_psl.1.0.0.UPF: wavefunction(s)  3S 3P renormalized
               file H.pbe-rrkjus.UPF: wavefunction(s)  1S renormalized

     reading file 'H2-diss.Al100-2x1-2L.path'

 
     string_method                 =    neb
     restart_mode                  =    restart
     opt_scheme                    =    quick-min
     num_of_images                 =    8
     nstep_path                    =    100
     CI_scheme                     =    auto
     first_last_opt                =    F
     use_freezing                  =    T
     ds                            =    1.0000 a.u.
     k_max                         =    0.3000 a.u.
     k_min                         =    0.2000 a.u.
     suggested k_max               =    0.6169 a.u.
     suggested k_min               =    0.4112 a.u.
     path_thr                      =    0.2000 eV / A

     ------------------------------ iteration   6 ------------------------------


     activation energy (->) =   1.095844 eV
     activation energy (<-) =   1.348592 eV

     image        energy (eV)        error (eV/A)        frozen

         1      -2178.8702485            0.022257            T
         2      -2178.7933457            0.300624            T
         3      -2178.5381855            0.595917            F
         4      -2177.7744049            1.127961            F
         5      -2177.7963328            0.514048            T
         6      -2178.3474752            0.765459            F
         7      -2178.8800183            0.764293            F
         8      -2179.1229965            0.000391            T

     climbing image =  4

     path length          =  5.214 bohr
     inter-image distance =  0.745 bohr

     ------------------------------ iteration   7 ------------------------------

     tcpu =      3.3    self-consistency for image   3
     tcpu =      8.0    self-consistency for image   4
     tcpu =     12.3    self-consistency for image   6
     tcpu =     17.4    self-consistency for image   7

     activation energy (->) =   1.107657 eV
     activation energy (<-) =   1.360405 eV

     image        energy (eV)        error (eV/A)        frozen

         1      -2178.8702485            0.022257            T
         2      -2178.7933457            0.317540            T
         3      -2178.5329331            0.596754            F
         4      -2177.7625919            1.020071            F
         5      -2177.7963328            0.512516            F
         6      -2178.3463746            0.692996            F
         7      -2178.8796787            0.736994            F
         8      -2179.1229965            0.000391            T

     climbing image =  4

     path length          =  5.221 bohr
     inter-image distance =  0.746 bohr

     ------------------------------ iteration   8 ------------------------------

     tcpu =     21.8    self-consistency for image   3
     tcpu =     26.5    self-consistency for image   4
     tcpu =     31.2    self-consistency for image   5
     tcpu =     35.8    self-consistency for image   6
     tcpu =     40.9    self-consistency for image   7

     activation energy (->) =   1.128865 eV
     activation energy (<-) =   1.381613 eV

     image        energy (eV)        error (eV/A)        frozen

         1      -2178.8702485            0.022257            T
         2      -2178.7933457            0.386244            T
         3      -2178.5211380            0.656615            F
         4      -2177.7413840            0.821335            F
         5      -2177.8014804            0.427021            F
         6      -2178.3425799            0.583801            F
         7      -2178.8788985            0.683031            F
         8      -2179.1229965            0.000391            T

     climbing image =  4

     path length          =  5.239 bohr
     inter-image distance =  0.748 bohr

     ------------------------------ iteration   9 ------------------------------

     tcpu =     45.8    self-consistency for image   3
     tcpu =     50.6    self-consistency for image   4
     tcpu =     55.3    self-consistency for image   5
     tcpu =     60.0    self-consistency for image   6
     tcpu =     65.1    self-consistency for image   7

     activation energy (->) =   1.153850 eV
     activation energy (<-) =   1.406598 eV

     image        energy (eV)        error (eV/A)        frozen

         1      -2178.8702485            0.022257            T
         2      -2178.7933457            0.613495            F
         3      -2178.5016433            0.668221            F
         4      -2177.7163982            0.555682            F
         5      -2177.8144250            0.383502            F
         6      -2178.3383373            0.452997            F
         7      -2178.8783702            0.605902            F
         8      -2179.1229965            0.000391            T

     climbing image =  4

     path length          =  5.274 bohr
     inter-image distance =  0.753 bohr

     ------------------------------ iteration  10 ------------------------------

     tcpu =     69.9    self-consistency for image   2
     tcpu =     73.8    self-consistency for image   3
     tcpu =     78.5    self-consistency for image   4
     tcpu =     83.2    self-consistency for image   5
     tcpu =     87.9    self-consistency for image   6
     tcpu =     92.9    self-consistency for image   7

     activation energy (->) =   1.173352 eV
     activation energy (<-) =   1.426100 eV

     image        energy (eV)        error (eV/A)        frozen

         1      -2178.8702485            0.022257            T
         2      -2178.7913583            0.815791            F
         3      -2178.4742341            0.653474            F
         4      -2177.6968967            0.271776            T
         5      -2177.8367628            0.391135            T
         6      -2178.3471676            0.315568            T
         7      -2178.8814529            0.509688            F
         8      -2179.1229965            0.000391            T

     climbing image =  4

     path length          =  5.328 bohr
     inter-image distance =  0.761 bohr

     ------------------------------ iteration  11 ------------------------------

     tcpu =     97.7    self-consistency for image   2
     tcpu =    102.0    self-consistency for image   3
     tcpu =    107.1    self-consistency for image   7

     activation energy (->) =   1.173352 eV
     activation energy (<-) =   1.426100 eV

     image        energy (eV)        error (eV/A)        frozen

         1      -2178.8702485            0.022257            T
         2      -2178.7842611            0.925369            F
         3      -2178.4346245            0.345831            T
         4      -2177.6968967            0.265576            T
         5      -2177.8367628            0.391135            T
         6      -2178.3471676            0.313196            T
         7      -2178.8976939            0.339181            T
         8      -2179.1229965            0.000391            T

     climbing image =  4

     path length          =  5.369 bohr
     inter-image distance =  0.767 bohr

     ------------------------------ iteration  12 ------------------------------

     tcpu =    112.2    self-consistency for image   2

     activation energy (->) =   1.173352 eV
     activation energy (<-) =   1.426100 eV

     image        energy (eV)        error (eV/A)        frozen

         1      -2178.8702485            0.022257            T
         2      -2178.7717050            0.394395            F
         3      -2178.4346245            0.426341            F
         4      -2177.6968967            0.265576            F
         5      -2177.8367628            0.391135            F
         6      -2178.3471676            0.313196            F
         7      -2178.8976939            0.339181            F
         8      -2179.1229965            0.000391            T

     climbing image =  4

     path length          =  5.367 bohr
     inter-image distance =  0.767 bohr

     ------------------------------ iteration  13 ------------------------------

     tcpu =    116.6    self-consistency for image   2
     tcpu =    121.3    self-consistency for image   3
     tcpu =    125.2    self-consistency for image   4
     tcpu =    128.8    self-consistency for image   5
     tcpu =    133.1    self-consistency for image   6
     tcpu =    137.7    self-consistency for image   7

     activation energy (->) =   1.174385 eV
     activation energy (<-) =   1.427133 eV

     image        energy (eV)        error (eV/A)        frozen

         1      -2178.8702485            0.022257            T
         2      -2178.7591600            0.190390            T
         3      -2178.4324134            0.589299            F
         4      -2177.6958630            0.247381            T
         5      -2177.8468692            0.349572            F
         6      -2178.3502250            0.314193            F
         7      -2178.8999338            0.331079            F
         8      -2179.1229965            0.000391            T

     climbing image =  4

     path length          =  5.376 bohr
     inter-image distance =  0.768 bohr

     ------------------------------ iteration  14 ------------------------------

     tcpu =    142.0    self-consistency for image   3
     tcpu =    146.2    self-consistency for image   5
     tcpu =    150.5    self-consistency for image   6
     tcpu =    155.1    self-consistency for image   7

     activation energy (->) =   1.174385 eV
     activation energy (<-) =   1.427133 eV

     image        energy (eV)        error (eV/A)        frozen

         1      -2178.8702485            0.022257            T
         2      -2178.7591600            0.213627            T
         3      -2178.4165251            0.436307            F
         4      -2177.6958630            0.247735            F
         5      -2177.8654458            0.309953            F
         6      -2178.3587620            0.315549            F
         7      -2178.9043804            0.314773            F
         8      -2179.1229965            0.000391            T

     climbing image =  4

     path length          =  5.389 bohr
     inter-image distance =  0.770 bohr

     ------------------------------ iteration  15 ------------------------------

     tcpu =    159.4    self-consistency for image   3
     tcpu =    164.1    self-consistency for image   4
     tcpu =    167.6    self-consistency for image   5
     tcpu =    172.3    self-consistency for image   6
     tcpu =    176.9    self-consistency for image   7

     activation energy (->) =   1.175079 eV
     activation energy (<-) =   1.427827 eV

     image        energy (eV)        error (eV/A)        frozen

         1      -2178.8702485            0.022257            T
         2      -2178.7591600            0.250360            F
         3      -2178.4052593            0.284510            F
         4      -2177.6951698            0.227180            F
         5      -2177.8838311            0.230319            F
         6      -2178.3753079            0.321190            F
         7      -2178.9115751            0.290014            F
         8      -2179.1229965            0.000391            T

     climbing image =  4

     path length          =  5.416 bohr
     inter-image distance =  0.774 bohr

     ------------------------------ iteration  16 ------------------------------

     tcpu =    181.7    self-consistency for image   2
     tcpu =    185.2    self-consistency for image   3
     tcpu =    190.0    self-consistency for image   4
     tcpu =    194.2    self-consistency for image   5
     tcpu =    198.6    self-consistency for image   6
     tcpu =    203.2    self-consistency for image   7

     activation energy (->) =   1.175842 eV
     activation energy (<-) =   1.428590 eV

     image        energy (eV)        error (eV/A)        frozen

         1      -2178.8702485            0.022257            T
         2      -2178.7584802            0.276594            F
         3      -2178.4118436            0.288838            F
         4      -2177.6944065            0.215756            F
         5      -2177.8953519            0.155605            T
         6      -2178.3980932            0.315575            F
         7      -2178.9226859            0.259474            F
         8      -2179.1229965            0.000391            T

     climbing image =  4

     path length          =  5.460 bohr
     inter-image distance =  0.780 bohr

     ------------------------------ iteration  17 ------------------------------

     tcpu =    212.5    self-consistency for image   2
     tcpu =    216.8    self-consistency for image   3
     tcpu =    222.3    self-consistency for image   4
     tcpu =    226.5    self-consistency for image   6
     tcpu =    231.2    self-consistency for image   7

     activation energy (->) =   1.175806 eV
     activation energy (<-) =   1.428554 eV

     image        energy (eV)        error (eV/A)        frozen

         1      -2178.8702485            0.022257            T
         2      -2178.7561266            0.281113            F
         3      -2178.4228526            0.129569            T
         4      -2177.6944425            0.190127            T
         5      -2177.8953519            0.244543            F
         6      -2178.4207461            0.202292            F
         7      -2178.9372902            0.225916            F
         8      -2179.1229965            0.000391            T

     climbing image =  4

     path length          =  5.501 bohr
     inter-image distance =  0.786 bohr

     ------------------------------ iteration  18 ------------------------------

     tcpu =    235.9    self-consistency for image   2
     tcpu =    240.1    self-consistency for image   5
     tcpu =    244.0    self-consistency for image   6
     tcpu =    248.7    self-consistency for image   7

     activation energy (->) =   1.175806 eV
     activation energy (<-) =   1.428554 eV

     image        energy (eV)        error (eV/A)        frozen

         1      -2178.8702485            0.022257            T
         2      -2178.7532454            0.218018            F
         3      -2178.4228526            0.159257            T
         4      -2177.6944425            0.191795            T
         5      -2177.9018322            0.211313            F
         6      -2178.4335176            0.099550            T
         7      -2178.9527169            0.184234            T
         8      -2179.1229965            0.000391            T

     climbing image =  4

     path length          =  5.524 bohr
     inter-image distance =  0.789 bohr

     ------------------------------ iteration  19 ------------------------------

     tcpu =    253.4    self-consistency for image   2
     tcpu =    258.1    self-consistency for image   5

     activation energy (->) =   1.175806 eV
     activation energy (<-) =   1.428554 eV

     image        energy (eV)        error (eV/A)        frozen

         1      -2178.8702485            0.022257            T
         2      -2178.7526396            0.153199            T
         3      -2178.4228526            0.191728            T
         4      -2177.6944425            0.194914            T
         5      -2177.9140412            0.154093            T
         6      -2178.4335176            0.143923            T
         7      -2178.9527169            0.184234            T
         8      -2179.1229965            0.000391            T

     climbing image =  4

     path length          =  5.523 bohr
     inter-image distance =  0.789 bohr

     ---------------------------------------------------------------------------


     neb: convergence achieved in  19 iterations
 
     NEB          :   4m 8.31s CPU   4m22.35s WALL

 
   This run was terminated on:  17: 2: 8  14Sep2019            

=------------------------------------------------------------------------------=
   JOB DONE.
=------------------------------------------------------------------------------=
