
     Program PWSCF v.6.4.1 starts on  4Sep2019 at 10: 1:26 

     This program is part of the open-source Quantum ESPRESSO suite
     for quantum simulation of materials; please cite
         "P. Giannozzi et al., J. Phys.:Condens. Matter 21 395502 (2009);
         "P. Giannozzi et al., J. Phys.:Condens. Matter 29 465901 (2017);
          URL http://www.quantum-espresso.org", 
     in publications or presentations arising from this work. More details at
     http://www.quantum-espresso.org/quote

     Parallel version (MPI), running on     2 processors

     MPI processes distributed on     1 nodes
     R & G space division:  proc/nbgrp/npool/nimage =       2
     Waiting for input...
     Reading input from standard input

     Current dimensions of program PWSCF are:
     Max number of different atomic species (ntypx) = 10
     Max number of k-points (npk) =  40000
     Max angular momentum in pseudopotentials (lmaxx) =  3

     IMPORTANT: XC functional enforced from input :
     Exchange-correlation      = PBE0 ( 6  4  8  4 0 0)
     EXX-fraction              =        0.25
     Any further DFT definition will be discarded
     Please, verify this is what you really want


     Subspace diagonalization in iterative solution of the eigenvalue problem:
     a serial algorithm will be used

     EXX: setup a grid of 320 q-points centered on each k-point
     (k+q)-points:
  -0.0625000   0.0625000   0.0625000         1    1
   0.4375000  -0.4375000   0.5625000         5    1
  -0.5625000  -0.4375000  -0.4375000         5   -9
  -0.0625000  -0.9375000   0.0625000        27    1
   0.4375000   0.5625000  -0.4375000         5  -14
   0.9375000   0.0625000   0.0625000        27   -5
  -0.0625000   0.0625000  -0.9375000        27  -14
   0.4375000  -0.4375000  -0.4375000        59   -1
  -0.1875000   0.1875000  -0.0625000         2    1
   0.3125000  -0.3125000   0.4375000         6    1
  -0.6875000  -0.3125000  -0.5625000        12   -9
  -0.1875000  -0.8125000  -0.0625000        28    1
   0.3125000   0.6875000  -0.5625000        12   23
   0.8125000   0.1875000  -0.0625000        28   -5
  -0.1875000   0.1875000  -1.0625000        48  -14
   0.3125000  -0.3125000  -0.5625000        55   14
  -0.3125000   0.3125000  -0.1875000         3    1
   0.1875000  -0.1875000   0.3125000         7    1
  -0.8125000  -0.1875000  -0.6875000        18   -9
  -0.3125000  -0.6875000  -0.1875000        29    1
   0.1875000   0.8125000  -0.6875000        18   23
   0.6875000   0.3125000  -0.1875000        29   -5
  -0.3125000   0.3125000  -1.1875000        58  -14
   0.1875000  -0.1875000  -0.6875000        44   14
  -0.4375000   0.4375000  -0.3125000         4    1
   0.0625000  -0.0625000   0.1875000         8    1
  -0.9375000  -0.0625000  -0.8125000        23   -9
  -0.4375000  -0.5625000  -0.3125000        26   14
   0.0625000   0.9375000  -0.8125000        23   23
   0.5625000   0.4375000  -0.3125000        26  -18
  -0.4375000   0.4375000  -1.3125000        60   -1
   0.0625000  -0.0625000  -0.8125000        22   14
  -0.0625000   0.3125000   0.0625000         9    1
   0.4375000  -0.1875000   0.5625000        13    1
  -0.5625000  -0.1875000  -0.4375000        13   -9
  -0.0625000  -0.6875000   0.0625000        30    1
   0.4375000   0.8125000  -0.4375000        36  -14
   0.9375000   0.3125000   0.0625000        49   -5
  -0.0625000   0.3125000  -0.9375000        49   18
   0.4375000  -0.1875000  -0.4375000        52   14
  -0.1875000   0.4375000  -0.0625000        10    1
   0.3125000  -0.0625000   0.4375000        14    1
  -0.6875000  -0.0625000  -0.5625000        19   -9
  -0.1875000  -0.5625000  -0.0625000        31    1
   0.3125000   0.9375000  -0.5625000        41   23
   0.8125000   0.4375000  -0.0625000        47  -18
  -0.1875000   0.4375000  -1.0625000        57    5
   0.3125000  -0.0625000  -0.5625000        40   14
  -0.3125000   0.5625000  -0.1875000        11    1
   0.1875000   0.0625000   0.3125000        15    1
  -0.8125000   0.0625000  -0.6875000        24   -9
  -0.3125000  -0.4375000  -0.1875000        21   14
   0.1875000   1.0625000  -0.6875000        45   23
   0.6875000   0.5625000  -0.1875000        25  -18
  -0.3125000   0.5625000  -1.1875000        56    5
   0.1875000   0.0625000  -0.6875000        17   14
   0.5625000  -0.3125000   0.6875000        12    1
   0.0625000   0.1875000   0.1875000         2   -9
   0.0625000  -0.8125000   0.1875000        28   -9
  -0.4375000  -0.3125000  -0.3125000         6   -9
   1.0625000   0.1875000   0.1875000        48   -5
   0.5625000   0.6875000  -0.3125000        12  -14
   0.5625000  -0.3125000  -0.3125000        55    5
   0.0625000   0.1875000  -0.8125000        28   18
  -0.0625000   0.5625000   0.0625000        16    1
   0.4375000   0.0625000   0.5625000        20    1
  -0.5625000   0.0625000  -0.4375000        20   -9
  -0.0625000  -0.4375000   0.0625000        32    1
   0.4375000   1.0625000  -0.4375000        53  -14
   0.9375000   0.5625000   0.0625000        46  -18
  -0.0625000   0.5625000  -0.9375000        46    5
   0.4375000   0.0625000  -0.4375000        35   14
  -0.1875000   0.6875000  -0.0625000        17    1
   0.3125000   0.1875000   0.4375000        21    1
  -0.6875000   0.1875000  -0.5625000        25   -9
  -0.1875000  -0.3125000  -0.0625000        15   14
   0.3125000   1.1875000  -0.5625000        56   23
   0.8125000   0.6875000  -0.0625000        24  -18
  -0.1875000   0.6875000  -1.0625000        45    5
   0.3125000   0.1875000  -0.5625000        11   14
   0.6875000  -0.1875000   0.8125000        18    1
   0.1875000   0.3125000   0.3125000         3   -9
   0.1875000  -0.6875000   0.3125000        29   -9
  -0.3125000  -0.1875000  -0.1875000         7   -9
   1.1875000   0.3125000   0.3125000        58   -5
   0.6875000   0.8125000  -0.1875000        18  -14
   0.6875000  -0.1875000  -0.1875000        44    5
   0.1875000   0.3125000  -0.6875000        29   18
   0.5625000  -0.0625000   0.6875000        19    1
   0.0625000   0.4375000   0.1875000        10   -9
   0.0625000  -0.5625000   0.1875000        31   -9
  -0.4375000  -0.0625000  -0.3125000        14   -9
   1.0625000   0.4375000   0.1875000        57  -18
   0.5625000   0.9375000  -0.3125000        41  -14
   0.5625000  -0.0625000  -0.3125000        40  -23
   0.0625000   0.4375000  -0.8125000        47    5
  -0.0625000   0.8125000   0.0625000        22    1
   0.4375000   0.3125000   0.5625000        26    1
  -0.5625000   0.3125000  -0.4375000        26   -9
  -0.0625000  -0.1875000   0.0625000         8   14
   0.4375000   1.3125000  -0.4375000        60  -14
   0.9375000   0.8125000   0.0625000        23  -18
  -0.0625000   0.8125000  -0.9375000        23    5
   0.4375000   0.3125000  -0.4375000         4   14
   0.8125000  -0.0625000   0.9375000        23    1
   0.3125000   0.4375000   0.4375000         4   -9
   0.3125000  -0.5625000   0.4375000        26  -23
  -0.1875000  -0.0625000  -0.0625000         8   -9
   1.3125000   0.4375000   0.4375000        60    9
   0.8125000   0.9375000  -0.0625000        23  -14
   0.8125000  -0.0625000  -0.0625000        22    5
   0.3125000   0.4375000  -0.5625000        26    5
   0.6875000   0.0625000   0.8125000        24    1
   0.1875000   0.5625000   0.3125000        11   -9
   0.1875000  -0.4375000   0.3125000        21  -23
  -0.3125000   0.0625000  -0.1875000        15   -9
   1.1875000   0.5625000   0.3125000        56  -18
   0.6875000   1.0625000  -0.1875000        45  -14
   0.6875000   0.0625000  -0.1875000        17  -23
   0.1875000   0.5625000  -0.6875000        25    5
   0.5625000   0.1875000   0.6875000        25    1
   0.0625000   0.6875000   0.1875000        17   -9
   0.0625000  -0.3125000   0.1875000        15  -23
  -0.4375000   0.1875000  -0.3125000        21   -9
   1.0625000   0.6875000   0.1875000        45  -18
   0.5625000   1.1875000  -0.3125000        56  -14
   0.5625000   0.1875000  -0.3125000        11  -23
   0.0625000   0.6875000  -0.8125000        24    5
  -0.1875000   0.1875000   0.1875000        33    1
   0.3125000  -0.3125000   0.6875000        37    1
  -0.6875000  -0.3125000  -0.3125000        37   -9
  -0.1875000  -0.8125000   0.1875000        50    1
   0.3125000   0.6875000  -0.3125000        37  -14
   0.8125000   0.1875000   0.1875000        50   -5
  -0.1875000   0.1875000  -0.8125000        50  -14
   0.3125000  -0.3125000  -0.3125000        51   -1
  -0.3125000   0.3125000   0.0625000        34    1
   0.1875000  -0.1875000   0.5625000        38    1
  -0.8125000  -0.1875000  -0.4375000        42   -9
  -0.3125000  -0.6875000   0.0625000        43   14
   0.1875000   0.8125000  -0.4375000        42   23
   0.6875000   0.3125000   0.0625000        43  -18
  -0.3125000   0.3125000  -0.9375000        54   -1
   0.1875000  -0.1875000  -0.4375000        39   14
  -0.4375000   0.4375000  -0.0625000        35    1
   0.0625000  -0.0625000   0.4375000        32   14
  -0.9375000  -0.0625000  -0.5625000        46   -9
  -0.4375000  -0.5625000  -0.0625000        20   14
   0.0625000   0.9375000  -0.5625000        46   23
   0.5625000   0.4375000  -0.0625000        20  -18
  -0.4375000   0.4375000  -1.0625000        53   -1
   0.0625000  -0.0625000  -0.5625000        16   14
   0.4375000  -0.4375000   0.8125000        36    1
  -0.0625000   0.0625000   0.3125000         9  -14
  -0.0625000  -0.9375000   0.3125000        49   -9
  -0.5625000  -0.4375000  -0.1875000        13   18
   0.9375000   0.0625000   0.3125000        49   23
   0.4375000   0.5625000  -0.1875000        13  -14
   0.4375000  -0.4375000  -0.1875000        52   -1
  -0.0625000   0.0625000  -0.6875000        30  -14
  -0.1875000   0.4375000   0.1875000        39    1
   0.3125000  -0.0625000   0.6875000        43    1
  -0.6875000  -0.0625000  -0.3125000        43   -9
  -0.1875000  -0.5625000   0.1875000        38   14
   0.3125000   0.9375000  -0.3125000        54  -14
   0.8125000   0.4375000   0.1875000        42  -18
  -0.1875000   0.4375000  -0.8125000        42    5
   0.3125000  -0.0625000  -0.3125000        34   14
  -0.3125000   0.5625000   0.0625000        40    1
   0.1875000   0.0625000   0.5625000        31   14
  -0.8125000   0.0625000  -0.4375000        47   -9
  -0.3125000  -0.4375000   0.0625000        14   14
   0.1875000   1.0625000  -0.4375000        57   23
   0.6875000   0.5625000   0.0625000        19  -18
  -0.3125000   0.5625000  -0.9375000        41    5
   0.1875000   0.0625000  -0.4375000        10   14
   0.5625000  -0.3125000   0.9375000        41    1
   0.0625000   0.1875000   0.4375000        10   18
   0.0625000  -0.8125000   0.4375000        47  -23
  -0.4375000  -0.3125000  -0.0625000        14   18
   1.0625000   0.1875000   0.4375000        57    9
   0.5625000   0.6875000  -0.0625000        19  -14
   0.5625000  -0.3125000  -0.0625000        40    5
   0.0625000   0.1875000  -0.5625000        31   18
   0.4375000  -0.1875000   0.8125000        42    1
  -0.0625000   0.3125000   0.3125000        34   -9
  -0.0625000  -0.6875000   0.3125000        43  -23
  -0.5625000  -0.1875000  -0.1875000        38   -9
   0.9375000   0.3125000   0.3125000        54    9
   0.4375000   0.8125000  -0.1875000        42  -14
   0.4375000  -0.1875000  -0.1875000        39    5
  -0.0625000   0.3125000  -0.6875000        43    5
  -0.1875000   0.6875000   0.1875000        44    1
   0.3125000   0.1875000   0.6875000        29   14
  -0.6875000   0.1875000  -0.3125000        29  -23
  -0.1875000  -0.3125000   0.1875000         7   14
   0.3125000   1.1875000  -0.3125000        58   -1
   0.8125000   0.6875000   0.1875000        18  -18
  -0.1875000   0.6875000  -0.8125000        18    5
   0.3125000   0.1875000  -0.3125000         3   14
   0.6875000  -0.1875000   1.0625000        45    1
   0.1875000   0.3125000   0.5625000        11   18
   0.1875000  -0.6875000   0.5625000        25  -23
  -0.3125000  -0.1875000   0.0625000        15   18
   1.1875000   0.3125000   0.5625000        56    9
   0.6875000   0.8125000   0.0625000        24  -14
   0.6875000  -0.1875000   0.0625000        17    5
   0.1875000   0.3125000  -0.4375000        21    5
   0.5625000  -0.0625000   0.9375000        46    1
   0.0625000   0.4375000   0.4375000        35   -9
   0.0625000  -0.5625000   0.4375000        20  -23
  -0.4375000  -0.0625000  -0.0625000        32    5
   1.0625000   0.4375000   0.4375000        53    9
   0.5625000   0.9375000  -0.0625000        46  -14
   0.5625000  -0.0625000  -0.0625000        16    5
   0.0625000   0.4375000  -0.5625000        20    5
   0.4375000   0.0625000   0.8125000        47    1
  -0.0625000   0.5625000   0.3125000        40   -9
  -0.0625000  -0.4375000   0.3125000        14  -23
  -0.5625000   0.0625000  -0.1875000        31  -23
   0.9375000   0.5625000   0.3125000        41  -18
   0.4375000   1.0625000  -0.1875000        57  -14
   0.4375000   0.0625000  -0.1875000        10  -23
  -0.0625000   0.5625000  -0.6875000        19    5
  -0.1875000  -1.0625000   0.1875000        48    1
  -0.6875000  -0.5625000  -0.3125000        12   18
   0.3125000  -0.5625000   0.6875000        12   -5
  -0.1875000  -0.0625000   0.1875000         2  -14
   0.3125000  -0.5625000  -0.3125000        55   -1
  -0.1875000  -0.0625000  -0.8125000        28  -14
   0.8125000  -0.0625000   0.1875000        28   23
   0.3125000   0.4375000  -0.3125000         6  -14
  -0.3125000  -0.9375000   0.0625000        49    1
  -0.8125000  -0.4375000  -0.4375000        36   -9
   0.1875000  -0.4375000   0.5625000        13   -5
  -0.3125000   0.0625000   0.0625000         9   -5
   0.1875000  -0.4375000  -0.4375000        52    9
  -0.3125000   0.0625000  -0.9375000        49  -14
   0.6875000   0.0625000   0.0625000        30   -5
   0.1875000   0.5625000  -0.4375000        13   23
  -0.3125000   0.3125000   0.3125000        51    1
   0.1875000  -0.1875000   0.8125000        50   14
  -0.8125000  -0.1875000  -0.1875000        50    5
  -0.3125000  -0.6875000   0.3125000        37   14
   0.1875000   0.8125000  -0.1875000        50   -1
   0.6875000   0.3125000   0.3125000        37    9
  -0.3125000   0.3125000  -0.6875000        37   -1
   0.1875000  -0.1875000  -0.1875000        33   -1
  -0.4375000   0.4375000   0.1875000        52    1
   0.0625000  -0.0625000   0.6875000        30   14
  -0.9375000  -0.0625000  -0.3125000        49  -23
  -0.4375000  -0.5625000   0.1875000        13   14
   0.0625000   0.9375000  -0.3125000        49    9
   0.5625000   0.4375000   0.1875000        13  -18
  -0.4375000   0.4375000  -0.8125000        36   -1
   0.0625000  -0.0625000  -0.3125000         9   14
   0.4375000  -0.4375000   1.0625000        53    1
  -0.0625000   0.0625000   0.5625000        16  -14
  -0.0625000  -0.9375000   0.5625000        46  -23
  -0.5625000  -0.4375000   0.0625000        20   18
   0.9375000   0.0625000   0.5625000        46    9
   0.4375000   0.5625000   0.0625000        20  -14
   0.4375000  -0.4375000   0.0625000        35   -1
  -0.0625000   0.0625000  -0.4375000        32  -14
   0.3125000  -0.3125000   0.9375000        54    1
  -0.1875000   0.1875000   0.4375000        39  -14
  -0.1875000  -0.8125000   0.4375000        42  -23
  -0.6875000  -0.3125000  -0.0625000        43   18
   0.8125000   0.1875000   0.4375000        42    9
   0.3125000   0.6875000  -0.0625000        43  -14
   0.3125000  -0.3125000  -0.0625000        34   -1
  -0.1875000   0.1875000  -0.5625000        38   -1
  -0.3125000   0.5625000   0.3125000        55    1
   0.1875000   0.0625000   0.8125000        28   14
  -0.8125000   0.0625000  -0.1875000        28  -23
  -0.3125000  -0.4375000   0.3125000         6   14
   0.1875000   1.0625000  -0.1875000        48   -1
   0.6875000   0.5625000   0.3125000        12  -18
  -0.3125000   0.5625000  -0.6875000        12    5
   0.1875000   0.0625000  -0.1875000         2   14
   0.5625000  -0.3125000   1.1875000        56    1
   0.0625000   0.1875000   0.6875000        17   18
   0.0625000  -0.8125000   0.6875000        24  -23
  -0.4375000  -0.3125000   0.1875000        21   18
   1.0625000   0.1875000   0.6875000        45    9
   0.5625000   0.6875000   0.1875000        25  -14
   0.5625000  -0.3125000   0.1875000        11    5
   0.0625000   0.1875000  -0.3125000        15    5
   0.4375000  -0.1875000   1.0625000        57    1
  -0.0625000   0.3125000   0.5625000        40   18
  -0.0625000  -0.6875000   0.5625000        19  -23
  -0.5625000  -0.1875000   0.0625000        31    5
   0.9375000   0.3125000   0.5625000        41    9
   0.4375000   0.8125000   0.0625000        47  -14
   0.4375000  -0.1875000   0.0625000        10    5
  -0.0625000   0.3125000  -0.4375000        14    5
  -0.3125000  -1.1875000   0.3125000        58    1
  -0.8125000  -0.6875000  -0.1875000        18   18
   0.1875000  -0.6875000   0.8125000        18   -5
  -0.3125000  -0.1875000   0.3125000         3  -14
   0.1875000  -0.6875000  -0.1875000        44   -1
  -0.3125000  -0.1875000  -0.6875000        29  -14
   0.6875000  -0.1875000   0.3125000        29   23
   0.1875000   0.3125000  -0.1875000         7  -14
  -0.4375000   0.4375000   0.4375000        59    1
   0.0625000  -0.0625000   0.9375000        27   14
  -0.9375000  -0.0625000  -0.0625000        27    5
  -0.4375000  -0.5625000   0.4375000         5   14
   0.0625000   0.9375000  -0.0625000        27   -1
   0.5625000   0.4375000   0.4375000         5    9
  -0.4375000   0.4375000  -0.5625000         5   -1
   0.0625000  -0.0625000  -0.0625000         1   -1
   0.4375000  -0.4375000   1.3125000        60    1
  -0.0625000   0.0625000   0.8125000        22  -14
  -0.0625000  -0.9375000   0.8125000        23  -23
  -0.5625000  -0.4375000   0.3125000        26   18
   0.9375000   0.0625000   0.8125000        23    9
   0.4375000   0.5625000   0.3125000        26  -14
   0.4375000  -0.4375000   0.3125000         4   -1
  -0.0625000   0.0625000  -0.1875000         8   -1
 
     Parallelization info
     --------------------
     sticks:   dense  smooth     PW     G-vecs:    dense   smooth      PW
     Min         141     141     54                 1570     1570     350
     Max         142     142     55                 1573     1573     351
     Sum         283     283    109                 3143     3143     701
 


     bravais-lattice index     =            2
     lattice parameter (alat)  =      10.2000  a.u.
     unit-cell volume          =     265.3020 (a.u.)^3
     number of atoms/cell      =            2
     number of atomic types    =            1
     number of electrons       =         8.00
     number of Kohn-Sham states=            4
     kinetic-energy cutoff     =      20.0000  Ry
     charge density cutoff     =      80.0000  Ry
     cutoff for Fock operator  =      80.0000  Ry
     convergence threshold     =      1.0E-09
     mixing beta               =       0.3000
     number of iterations used =            8  plain     mixing
     Exchange-correlation      = PBE0 ( 6  4  8  4 0 0)
     EXX-fraction              =        0.25

     celldm(1)=  10.200000  celldm(2)=   0.000000  celldm(3)=   0.000000
     celldm(4)=   0.000000  celldm(5)=   0.000000  celldm(6)=   0.000000

     crystal axes: (cart. coord. in units of alat)
               a(1) = (  -0.500000   0.000000   0.500000 )  
               a(2) = (   0.000000   0.500000   0.500000 )  
               a(3) = (  -0.500000   0.500000   0.000000 )  

     reciprocal axes: (cart. coord. in units 2 pi/alat)
               b(1) = ( -1.000000 -1.000000  1.000000 )  
               b(2) = (  1.000000  1.000000  1.000000 )  
               b(3) = ( -1.000000  1.000000 -1.000000 )  


     PseudoPot. # 1 for Si read from file:
     ../../../pseudo/Si.pbe-rrkj.UPF
     MD5 check sum: d313e23c370db8ef523384de16bc752c
     Pseudo is Norm-conserving, Zval =  4.0
     Generated by new atomic code, or converted to UPF format
     Using radial grid of  883 points,  3 beta functions with: 
                l(1) =   0
                l(2) =   0
                l(3) =   1

     atomic species   valence    mass     pseudopotential
        Si             4.00    28.08600     Si( 1.00)

     48 Sym. Ops., with inversion, found (24 have fractional translation)


                                    s                        frac. trans.

      isym =  1     identity                                     

 cryst.   s( 1) = (     1          0          0      )
                  (     0          1          0      )
                  (     0          0          1      )

 cart.    s( 1) = (  1.0000000  0.0000000  0.0000000 )
                  (  0.0000000  1.0000000  0.0000000 )
                  (  0.0000000  0.0000000  1.0000000 )


      isym =  2     180 deg rotation - cart. axis [0,0,1]        

 cryst.   s( 2) = (     0          1         -1      )
                  (     1          0         -1      )
                  (     0          0         -1      )

 cart.    s( 2) = ( -1.0000000  0.0000000  0.0000000 )
                  (  0.0000000 -1.0000000  0.0000000 )
                  (  0.0000000  0.0000000  1.0000000 )


      isym =  3     180 deg rotation - cart. axis [0,1,0]        

 cryst.   s( 3) = (    -1          0          0      )
                  (    -1          0          1      )
                  (    -1          1          0      )

 cart.    s( 3) = ( -1.0000000  0.0000000  0.0000000 )
                  (  0.0000000  1.0000000  0.0000000 )
                  (  0.0000000  0.0000000 -1.0000000 )


      isym =  4     180 deg rotation - cart. axis [1,0,0]        

 cryst.   s( 4) = (     0         -1          1      )
                  (     0         -1          0      )
                  (     1         -1          0      )

 cart.    s( 4) = (  1.0000000  0.0000000  0.0000000 )
                  (  0.0000000 -1.0000000  0.0000000 )
                  (  0.0000000  0.0000000 -1.0000000 )


      isym =  5     180 deg rotation - cart. axis [1,1,0]        

 cryst.   s( 5) = (     0         -1          0      )    f =(  0.2500000 )
                  (    -1          0          0      )       (  0.2500000 )
                  (     0          0         -1      )       (  0.2500000 )

 cart.    s( 5) = (  0.0000000  1.0000000  0.0000000 )    f =( -0.2500000 )
                  (  1.0000000  0.0000000  0.0000000 )       (  0.2500000 )
                  (  0.0000000  0.0000000 -1.0000000 )       (  0.2500000 )


      isym =  6     180 deg rotation - cart. axis [1,-1,0]       

 cryst.   s( 6) = (    -1          0          1      )    f =(  0.2500000 )
                  (     0         -1          1      )       (  0.2500000 )
                  (     0          0          1      )       (  0.2500000 )

 cart.    s( 6) = (  0.0000000 -1.0000000  0.0000000 )    f =( -0.2500000 )
                  ( -1.0000000  0.0000000  0.0000000 )       (  0.2500000 )
                  (  0.0000000  0.0000000 -1.0000000 )       (  0.2500000 )


      isym =  7      90 deg rotation - cart. axis [0,0,-1]       

 cryst.   s( 7) = (     0          1          0      )    f =(  0.2500000 )
                  (     0          1         -1      )       (  0.2500000 )
                  (    -1          1          0      )       (  0.2500000 )

 cart.    s( 7) = (  0.0000000  1.0000000  0.0000000 )    f =( -0.2500000 )
                  ( -1.0000000  0.0000000  0.0000000 )       (  0.2500000 )
                  (  0.0000000  0.0000000  1.0000000 )       (  0.2500000 )


      isym =  8      90 deg rotation - cart. axis [0,0,1]        

 cryst.   s( 8) = (     1          0         -1      )    f =(  0.2500000 )
                  (     1          0          0      )       (  0.2500000 )
                  (     1         -1          0      )       (  0.2500000 )

 cart.    s( 8) = (  0.0000000 -1.0000000  0.0000000 )    f =( -0.2500000 )
                  (  1.0000000  0.0000000  0.0000000 )       (  0.2500000 )
                  (  0.0000000  0.0000000  1.0000000 )       (  0.2500000 )


      isym =  9     180 deg rotation - cart. axis [1,0,1]        

 cryst.   s( 9) = (    -1          0          0      )    f =(  0.2500000 )
                  (     0          0         -1      )       (  0.2500000 )
                  (     0         -1          0      )       (  0.2500000 )

 cart.    s( 9) = (  0.0000000  0.0000000  1.0000000 )    f =( -0.2500000 )
                  (  0.0000000 -1.0000000  0.0000000 )       (  0.2500000 )
                  (  1.0000000  0.0000000  0.0000000 )       (  0.2500000 )


      isym = 10     180 deg rotation - cart. axis [-1,0,1]       

 cryst.   s(10) = (     1          0          0      )    f =(  0.2500000 )
                  (     1         -1          0      )       (  0.2500000 )
                  (     1          0         -1      )       (  0.2500000 )

 cart.    s(10) = (  0.0000000  0.0000000 -1.0000000 )    f =( -0.2500000 )
                  (  0.0000000 -1.0000000  0.0000000 )       (  0.2500000 )
                  ( -1.0000000  0.0000000  0.0000000 )       (  0.2500000 )


      isym = 11      90 deg rotation - cart. axis [0,1,0]        

 cryst.   s(11) = (     0          1         -1      )    f =(  0.2500000 )
                  (    -1          1          0      )       (  0.2500000 )
                  (     0          1          0      )       (  0.2500000 )

 cart.    s(11) = (  0.0000000  0.0000000  1.0000000 )    f =( -0.2500000 )
                  (  0.0000000  1.0000000  0.0000000 )       (  0.2500000 )
                  ( -1.0000000  0.0000000  0.0000000 )       (  0.2500000 )


      isym = 12      90 deg rotation - cart. axis [0,-1,0]       

 cryst.   s(12) = (     0         -1          1      )    f =(  0.2500000 )
                  (     0          0          1      )       (  0.2500000 )
                  (    -1          0          1      )       (  0.2500000 )

 cart.    s(12) = (  0.0000000  0.0000000 -1.0000000 )    f =( -0.2500000 )
                  (  0.0000000  1.0000000  0.0000000 )       (  0.2500000 )
                  (  1.0000000  0.0000000  0.0000000 )       (  0.2500000 )


      isym = 13     180 deg rotation - cart. axis [0,1,1]        

 cryst.   s(13) = (    -1          1          0      )    f =(  0.2500000 )
                  (     0          1          0      )       (  0.2500000 )
                  (     0          1         -1      )       (  0.2500000 )

 cart.    s(13) = ( -1.0000000  0.0000000  0.0000000 )    f =( -0.2500000 )
                  (  0.0000000  0.0000000  1.0000000 )       (  0.2500000 )
                  (  0.0000000  1.0000000  0.0000000 )       (  0.2500000 )


      isym = 14     180 deg rotation - cart. axis [0,1,-1]       

 cryst.   s(14) = (     0          0         -1      )    f =(  0.2500000 )
                  (     0         -1          0      )       (  0.2500000 )
                  (    -1          0          0      )       (  0.2500000 )

 cart.    s(14) = ( -1.0000000  0.0000000  0.0000000 )    f =( -0.2500000 )
                  (  0.0000000  0.0000000 -1.0000000 )       (  0.2500000 )
                  (  0.0000000 -1.0000000  0.0000000 )       (  0.2500000 )


      isym = 15      90 deg rotation - cart. axis [-1,0,0]       

 cryst.   s(15) = (     0          0          1      )    f =(  0.2500000 )
                  (    -1          0          1      )       (  0.2500000 )
                  (     0         -1          1      )       (  0.2500000 )

 cart.    s(15) = (  1.0000000  0.0000000  0.0000000 )    f =( -0.2500000 )
                  (  0.0000000  0.0000000  1.0000000 )       (  0.2500000 )
                  (  0.0000000 -1.0000000  0.0000000 )       (  0.2500000 )


      isym = 16      90 deg rotation - cart. axis [1,0,0]        

 cryst.   s(16) = (     1         -1          0      )    f =(  0.2500000 )
                  (     1          0         -1      )       (  0.2500000 )
                  (     1          0          0      )       (  0.2500000 )

 cart.    s(16) = (  1.0000000  0.0000000  0.0000000 )    f =( -0.2500000 )
                  (  0.0000000  0.0000000 -1.0000000 )       (  0.2500000 )
                  (  0.0000000  1.0000000  0.0000000 )       (  0.2500000 )


      isym = 17     120 deg rotation - cart. axis [-1,-1,-1]     

 cryst.   s(17) = (    -1          0          1      )
                  (    -1          1          0      )
                  (    -1          0          0      )

 cart.    s(17) = (  0.0000000  1.0000000  0.0000000 )
                  (  0.0000000  0.0000000  1.0000000 )
                  (  1.0000000  0.0000000  0.0000000 )


      isym = 18     120 deg rotation - cart. axis [-1,1,1]       

 cryst.   s(18) = (     0          1          0      )
                  (     0          0          1      )
                  (     1          0          0      )

 cart.    s(18) = (  0.0000000 -1.0000000  0.0000000 )
                  (  0.0000000  0.0000000  1.0000000 )
                  ( -1.0000000  0.0000000  0.0000000 )


      isym = 19     120 deg rotation - cart. axis [1,1,-1]       

 cryst.   s(19) = (     1          0         -1      )
                  (     0          0         -1      )
                  (     0          1         -1      )

 cart.    s(19) = (  0.0000000  1.0000000  0.0000000 )
                  (  0.0000000  0.0000000 -1.0000000 )
                  ( -1.0000000  0.0000000  0.0000000 )


      isym = 20     120 deg rotation - cart. axis [1,-1,1]       

 cryst.   s(20) = (     0         -1          0      )
                  (     1         -1          0      )
                  (     0         -1          1      )

 cart.    s(20) = (  0.0000000 -1.0000000  0.0000000 )
                  (  0.0000000  0.0000000 -1.0000000 )
                  (  1.0000000  0.0000000  0.0000000 )


      isym = 21     120 deg rotation - cart. axis [1,1,1]        

 cryst.   s(21) = (     0          0         -1      )
                  (     0          1         -1      )
                  (     1          0         -1      )

 cart.    s(21) = (  0.0000000  0.0000000  1.0000000 )
                  (  1.0000000  0.0000000  0.0000000 )
                  (  0.0000000  1.0000000  0.0000000 )


      isym = 22     120 deg rotation - cart. axis [-1,1,-1]      

 cryst.   s(22) = (    -1          1          0      )
                  (    -1          0          0      )
                  (    -1          0          1      )

 cart.    s(22) = (  0.0000000  0.0000000  1.0000000 )
                  ( -1.0000000  0.0000000  0.0000000 )
                  (  0.0000000 -1.0000000  0.0000000 )


      isym = 23     120 deg rotation - cart. axis [1,-1,-1]      

 cryst.   s(23) = (     0          0          1      )
                  (     1          0          0      )
                  (     0          1          0      )

 cart.    s(23) = (  0.0000000  0.0000000 -1.0000000 )
                  ( -1.0000000  0.0000000  0.0000000 )
                  (  0.0000000  1.0000000  0.0000000 )


      isym = 24     120 deg rotation - cart. axis [-1,-1,1]      

 cryst.   s(24) = (     1         -1          0      )
                  (     0         -1          1      )
                  (     0         -1          0      )

 cart.    s(24) = (  0.0000000  0.0000000 -1.0000000 )
                  (  1.0000000  0.0000000  0.0000000 )
                  (  0.0000000 -1.0000000  0.0000000 )


      isym = 25     inversion                                    

 cryst.   s(25) = (    -1          0          0      )    f =(  0.2500000 )
                  (     0         -1          0      )       (  0.2500000 )
                  (     0          0         -1      )       (  0.2500000 )

 cart.    s(25) = ( -1.0000000  0.0000000  0.0000000 )    f =( -0.2500000 )
                  (  0.0000000 -1.0000000  0.0000000 )       (  0.2500000 )
                  (  0.0000000  0.0000000 -1.0000000 )       (  0.2500000 )


      isym = 26     inv. 180 deg rotation - cart. axis [0,0,1]   

 cryst.   s(26) = (     0         -1          1      )    f =(  0.2500000 )
                  (    -1          0          1      )       (  0.2500000 )
                  (     0          0          1      )       (  0.2500000 )

 cart.    s(26) = (  1.0000000  0.0000000  0.0000000 )    f =( -0.2500000 )
                  (  0.0000000  1.0000000  0.0000000 )       (  0.2500000 )
                  (  0.0000000  0.0000000 -1.0000000 )       (  0.2500000 )


      isym = 27     inv. 180 deg rotation - cart. axis [0,1,0]   

 cryst.   s(27) = (     1          0          0      )    f =(  0.2500000 )
                  (     1          0         -1      )       (  0.2500000 )
                  (     1         -1          0      )       (  0.2500000 )

 cart.    s(27) = (  1.0000000  0.0000000  0.0000000 )    f =( -0.2500000 )
                  (  0.0000000 -1.0000000  0.0000000 )       (  0.2500000 )
                  (  0.0000000  0.0000000  1.0000000 )       (  0.2500000 )


      isym = 28     inv. 180 deg rotation - cart. axis [1,0,0]   

 cryst.   s(28) = (     0          1         -1      )    f =(  0.2500000 )
                  (     0          1          0      )       (  0.2500000 )
                  (    -1          1          0      )       (  0.2500000 )

 cart.    s(28) = ( -1.0000000  0.0000000  0.0000000 )    f =( -0.2500000 )
                  (  0.0000000  1.0000000  0.0000000 )       (  0.2500000 )
                  (  0.0000000  0.0000000  1.0000000 )       (  0.2500000 )


      isym = 29     inv. 180 deg rotation - cart. axis [1,1,0]   

 cryst.   s(29) = (     0          1          0      )
                  (     1          0          0      )
                  (     0          0          1      )

 cart.    s(29) = (  0.0000000 -1.0000000  0.0000000 )
                  ( -1.0000000  0.0000000  0.0000000 )
                  (  0.0000000  0.0000000  1.0000000 )


      isym = 30     inv. 180 deg rotation - cart. axis [1,-1,0]  

 cryst.   s(30) = (     1          0         -1      )
                  (     0          1         -1      )
                  (     0          0         -1      )

 cart.    s(30) = (  0.0000000  1.0000000  0.0000000 )
                  (  1.0000000  0.0000000  0.0000000 )
                  (  0.0000000  0.0000000  1.0000000 )


      isym = 31     inv.  90 deg rotation - cart. axis [0,0,-1]  

 cryst.   s(31) = (     0         -1          0      )
                  (     0         -1          1      )
                  (     1         -1          0      )

 cart.    s(31) = (  0.0000000 -1.0000000  0.0000000 )
                  (  1.0000000  0.0000000  0.0000000 )
                  (  0.0000000  0.0000000 -1.0000000 )


      isym = 32     inv.  90 deg rotation - cart. axis [0,0,1]   

 cryst.   s(32) = (    -1          0          1      )
                  (    -1          0          0      )
                  (    -1          1          0      )

 cart.    s(32) = (  0.0000000  1.0000000  0.0000000 )
                  ( -1.0000000  0.0000000  0.0000000 )
                  (  0.0000000  0.0000000 -1.0000000 )


      isym = 33     inv. 180 deg rotation - cart. axis [1,0,1]   

 cryst.   s(33) = (     1          0          0      )
                  (     0          0          1      )
                  (     0          1          0      )

 cart.    s(33) = (  0.0000000  0.0000000 -1.0000000 )
                  (  0.0000000  1.0000000  0.0000000 )
                  ( -1.0000000  0.0000000  0.0000000 )


      isym = 34     inv. 180 deg rotation - cart. axis [-1,0,1]  

 cryst.   s(34) = (    -1          0          0      )
                  (    -1          1          0      )
                  (    -1          0          1      )

 cart.    s(34) = (  0.0000000  0.0000000  1.0000000 )
                  (  0.0000000  1.0000000  0.0000000 )
                  (  1.0000000  0.0000000  0.0000000 )


      isym = 35     inv.  90 deg rotation - cart. axis [0,1,0]   

 cryst.   s(35) = (     0         -1          1      )
                  (     1         -1          0      )
                  (     0         -1          0      )

 cart.    s(35) = (  0.0000000  0.0000000 -1.0000000 )
                  (  0.0000000 -1.0000000  0.0000000 )
                  (  1.0000000  0.0000000  0.0000000 )


      isym = 36     inv.  90 deg rotation - cart. axis [0,-1,0]  

 cryst.   s(36) = (     0          1         -1      )
                  (     0          0         -1      )
                  (     1          0         -1      )

 cart.    s(36) = (  0.0000000  0.0000000  1.0000000 )
                  (  0.0000000 -1.0000000  0.0000000 )
                  ( -1.0000000  0.0000000  0.0000000 )


      isym = 37     inv. 180 deg rotation - cart. axis [0,1,1]   

 cryst.   s(37) = (     1         -1          0      )
                  (     0         -1          0      )
                  (     0         -1          1      )

 cart.    s(37) = (  1.0000000  0.0000000  0.0000000 )
                  (  0.0000000  0.0000000 -1.0000000 )
                  (  0.0000000 -1.0000000  0.0000000 )


      isym = 38     inv. 180 deg rotation - cart. axis [0,1,-1]  

 cryst.   s(38) = (     0          0          1      )
                  (     0          1          0      )
                  (     1          0          0      )

 cart.    s(38) = (  1.0000000  0.0000000  0.0000000 )
                  (  0.0000000  0.0000000  1.0000000 )
                  (  0.0000000  1.0000000  0.0000000 )


      isym = 39     inv.  90 deg rotation - cart. axis [-1,0,0]  

 cryst.   s(39) = (     0          0         -1      )
                  (     1          0         -1      )
                  (     0          1         -1      )

 cart.    s(39) = ( -1.0000000  0.0000000  0.0000000 )
                  (  0.0000000  0.0000000 -1.0000000 )
                  (  0.0000000  1.0000000  0.0000000 )


      isym = 40     inv.  90 deg rotation - cart. axis [1,0,0]   

 cryst.   s(40) = (    -1          1          0      )
                  (    -1          0          1      )
                  (    -1          0          0      )

 cart.    s(40) = ( -1.0000000  0.0000000  0.0000000 )
                  (  0.0000000  0.0000000  1.0000000 )
                  (  0.0000000 -1.0000000  0.0000000 )


      isym = 41     inv. 120 deg rotation - cart. axis [-1,-1,-1]

 cryst.   s(41) = (     1          0         -1      )    f =(  0.2500000 )
                  (     1         -1          0      )       (  0.2500000 )
                  (     1          0          0      )       (  0.2500000 )

 cart.    s(41) = (  0.0000000 -1.0000000  0.0000000 )    f =( -0.2500000 )
                  (  0.0000000  0.0000000 -1.0000000 )       (  0.2500000 )
                  ( -1.0000000  0.0000000  0.0000000 )       (  0.2500000 )


      isym = 42     inv. 120 deg rotation - cart. axis [-1,1,1]  

 cryst.   s(42) = (     0         -1          0      )    f =(  0.2500000 )
                  (     0          0         -1      )       (  0.2500000 )
                  (    -1          0          0      )       (  0.2500000 )

 cart.    s(42) = (  0.0000000  1.0000000  0.0000000 )    f =( -0.2500000 )
                  (  0.0000000  0.0000000 -1.0000000 )       (  0.2500000 )
                  (  1.0000000  0.0000000  0.0000000 )       (  0.2500000 )


      isym = 43     inv. 120 deg rotation - cart. axis [1,1,-1]  

 cryst.   s(43) = (    -1          0          1      )    f =(  0.2500000 )
                  (     0          0          1      )       (  0.2500000 )
                  (     0         -1          1      )       (  0.2500000 )

 cart.    s(43) = (  0.0000000 -1.0000000  0.0000000 )    f =( -0.2500000 )
                  (  0.0000000  0.0000000  1.0000000 )       (  0.2500000 )
                  (  1.0000000  0.0000000  0.0000000 )       (  0.2500000 )


      isym = 44     inv. 120 deg rotation - cart. axis [1,-1,1]  

 cryst.   s(44) = (     0          1          0      )    f =(  0.2500000 )
                  (    -1          1          0      )       (  0.2500000 )
                  (     0          1         -1      )       (  0.2500000 )

 cart.    s(44) = (  0.0000000  1.0000000  0.0000000 )    f =( -0.2500000 )
                  (  0.0000000  0.0000000  1.0000000 )       (  0.2500000 )
                  ( -1.0000000  0.0000000  0.0000000 )       (  0.2500000 )


      isym = 45     inv. 120 deg rotation - cart. axis [1,1,1]   

 cryst.   s(45) = (     0          0          1      )    f =(  0.2500000 )
                  (     0         -1          1      )       (  0.2500000 )
                  (    -1          0          1      )       (  0.2500000 )

 cart.    s(45) = (  0.0000000  0.0000000 -1.0000000 )    f =( -0.2500000 )
                  ( -1.0000000  0.0000000  0.0000000 )       (  0.2500000 )
                  (  0.0000000 -1.0000000  0.0000000 )       (  0.2500000 )


      isym = 46     inv. 120 deg rotation - cart. axis [-1,1,-1] 

 cryst.   s(46) = (     1         -1          0      )    f =(  0.2500000 )
                  (     1          0          0      )       (  0.2500000 )
                  (     1          0         -1      )       (  0.2500000 )

 cart.    s(46) = (  0.0000000  0.0000000 -1.0000000 )    f =( -0.2500000 )
                  (  1.0000000  0.0000000  0.0000000 )       (  0.2500000 )
                  (  0.0000000  1.0000000  0.0000000 )       (  0.2500000 )


      isym = 47     inv. 120 deg rotation - cart. axis [1,-1,-1] 

 cryst.   s(47) = (     0          0         -1      )    f =(  0.2500000 )
                  (    -1          0          0      )       (  0.2500000 )
                  (     0         -1          0      )       (  0.2500000 )

 cart.    s(47) = (  0.0000000  0.0000000  1.0000000 )    f =( -0.2500000 )
                  (  1.0000000  0.0000000  0.0000000 )       (  0.2500000 )
                  (  0.0000000 -1.0000000  0.0000000 )       (  0.2500000 )


      isym = 48     inv. 120 deg rotation - cart. axis [-1,-1,1] 

 cryst.   s(48) = (    -1          1          0      )    f =(  0.2500000 )
                  (     0          1         -1      )       (  0.2500000 )
                  (     0          1          0      )       (  0.2500000 )

 cart.    s(48) = (  0.0000000  0.0000000  1.0000000 )    f =( -0.2500000 )
                  ( -1.0000000  0.0000000  0.0000000 )       (  0.2500000 )
                  (  0.0000000  1.0000000  0.0000000 )       (  0.2500000 )


     point group O_h (m-3m) 
     there are 10 classes
     the character table:

       E     8C3   3C2   6C4   6C2'  i     8S6   3s_h  6S4   6s_d 
A_1g   1.00  1.00  1.00  1.00  1.00  1.00  1.00  1.00  1.00  1.00
A_2g   1.00  1.00  1.00 -1.00 -1.00  1.00  1.00  1.00 -1.00 -1.00
E_g    2.00 -1.00  2.00  0.00  0.00  2.00 -1.00  2.00  0.00  0.00
T_1g   3.00  0.00 -1.00  1.00 -1.00  3.00  0.00 -1.00  1.00 -1.00
T_2g   3.00  0.00 -1.00 -1.00  1.00  3.00  0.00 -1.00 -1.00  1.00
A_1u   1.00  1.00  1.00  1.00  1.00 -1.00 -1.00 -1.00 -1.00 -1.00
A_2u   1.00  1.00  1.00 -1.00 -1.00 -1.00 -1.00 -1.00  1.00  1.00
E_u    2.00 -1.00  2.00  0.00  0.00 -2.00  1.00 -2.00  0.00  0.00
T_1u   3.00  0.00 -1.00  1.00 -1.00 -3.00  0.00  1.00 -1.00  1.00
T_2u   3.00  0.00 -1.00 -1.00  1.00 -3.00  0.00  1.00  1.00 -1.00

     the symmetry operations in each class and the name of the first element:

     E        1
          identity                                               
     8C3     17   19   20   18   24   21   22   23
          120 deg rotation - cart. axis [-1,-1,-1]               
     3C2      2    4    3
          180 deg rotation - cart. axis [0,0,1]                  
     6C4      7    8   15   16   12   11
           90 deg rotation - cart. axis [0,0,-1]                 
     6C2'     5    6   14   13   10    9
          180 deg rotation - cart. axis [1,1,0]                  
     i       25
          inversion                                              
     8S6     41   43   44   42   48   45   46   47
          inv. 120 deg rotation - cart. axis [-1,-1,-1]          
     3s_h    26   28   27
          inv. 180 deg rotation - cart. axis [0,0,1]             
     6S4     31   32   39   40   36   35
          inv.  90 deg rotation - cart. axis [0,0,-1]            
     6s_d    29   30   38   37   34   33
          inv. 180 deg rotation - cart. axis [1,1,0]             

   Cartesian axes

     site n.     atom                  positions (alat units)
         1           Si  tau(   1) = (   0.0000000   0.0000000   0.0000000  )
         2           Si  tau(   2) = (   0.2500000   0.2500000   0.2500000  )

   Crystallographic axes

     site n.     atom                  positions (cryst. coord.)
         1           Si  tau(   1) = (  0.0000000  0.0000000  0.0000000  )
         2           Si  tau(   2) = ( -0.2500000  0.7500000 -0.2500000  )

     number of k points=    60
                       cart. coord. in units 2pi/alat
        k(    1) = (  -0.0625000   0.0625000   0.0625000), wk =   0.0078125
        k(    2) = (  -0.1875000   0.1875000  -0.0625000), wk =   0.0234375
        k(    3) = (  -0.3125000   0.3125000  -0.1875000), wk =   0.0234375
        k(    4) = (  -0.4375000   0.4375000  -0.3125000), wk =   0.0234375
        k(    5) = (   0.4375000  -0.4375000   0.5625000), wk =   0.0234375
        k(    6) = (   0.3125000  -0.3125000   0.4375000), wk =   0.0234375
        k(    7) = (   0.1875000  -0.1875000   0.3125000), wk =   0.0234375
        k(    8) = (   0.0625000  -0.0625000   0.1875000), wk =   0.0234375
        k(    9) = (  -0.0625000   0.3125000   0.0625000), wk =   0.0234375
        k(   10) = (  -0.1875000   0.4375000  -0.0625000), wk =   0.0468750
        k(   11) = (  -0.3125000   0.5625000  -0.1875000), wk =   0.0468750
        k(   12) = (   0.5625000  -0.3125000   0.6875000), wk =   0.0468750
        k(   13) = (   0.4375000  -0.1875000   0.5625000), wk =   0.0468750
        k(   14) = (   0.3125000  -0.0625000   0.4375000), wk =   0.0468750
        k(   15) = (   0.1875000   0.0625000   0.3125000), wk =   0.0468750
        k(   16) = (  -0.0625000   0.5625000   0.0625000), wk =   0.0234375
        k(   17) = (  -0.1875000   0.6875000  -0.0625000), wk =   0.0468750
        k(   18) = (   0.6875000  -0.1875000   0.8125000), wk =   0.0468750
        k(   19) = (   0.5625000  -0.0625000   0.6875000), wk =   0.0468750
        k(   20) = (   0.4375000   0.0625000   0.5625000), wk =   0.0468750
        k(   21) = (   0.3125000   0.1875000   0.4375000), wk =   0.0468750
        k(   22) = (  -0.0625000   0.8125000   0.0625000), wk =   0.0234375
        k(   23) = (   0.8125000  -0.0625000   0.9375000), wk =   0.0468750
        k(   24) = (   0.6875000   0.0625000   0.8125000), wk =   0.0468750
        k(   25) = (   0.5625000   0.1875000   0.6875000), wk =   0.0468750
        k(   26) = (   0.4375000   0.3125000   0.5625000), wk =   0.0468750
        k(   27) = (  -0.0625000  -0.9375000   0.0625000), wk =   0.0234375
        k(   28) = (  -0.1875000  -0.8125000  -0.0625000), wk =   0.0468750
        k(   29) = (  -0.3125000  -0.6875000  -0.1875000), wk =   0.0468750
        k(   30) = (  -0.0625000  -0.6875000   0.0625000), wk =   0.0234375
        k(   31) = (  -0.1875000  -0.5625000  -0.0625000), wk =   0.0468750
        k(   32) = (  -0.0625000  -0.4375000   0.0625000), wk =   0.0234375
        k(   33) = (  -0.1875000   0.1875000   0.1875000), wk =   0.0078125
        k(   34) = (  -0.3125000   0.3125000   0.0625000), wk =   0.0234375
        k(   35) = (  -0.4375000   0.4375000  -0.0625000), wk =   0.0234375
        k(   36) = (   0.4375000  -0.4375000   0.8125000), wk =   0.0234375
        k(   37) = (   0.3125000  -0.3125000   0.6875000), wk =   0.0234375
        k(   38) = (   0.1875000  -0.1875000   0.5625000), wk =   0.0234375
        k(   39) = (  -0.1875000   0.4375000   0.1875000), wk =   0.0234375
        k(   40) = (  -0.3125000   0.5625000   0.0625000), wk =   0.0468750
        k(   41) = (   0.5625000  -0.3125000   0.9375000), wk =   0.0468750
        k(   42) = (   0.4375000  -0.1875000   0.8125000), wk =   0.0468750
        k(   43) = (   0.3125000  -0.0625000   0.6875000), wk =   0.0468750
        k(   44) = (  -0.1875000   0.6875000   0.1875000), wk =   0.0234375
        k(   45) = (   0.6875000  -0.1875000   1.0625000), wk =   0.0468750
        k(   46) = (   0.5625000  -0.0625000   0.9375000), wk =   0.0468750
        k(   47) = (   0.4375000   0.0625000   0.8125000), wk =   0.0468750
        k(   48) = (  -0.1875000  -1.0625000   0.1875000), wk =   0.0234375
        k(   49) = (  -0.3125000  -0.9375000   0.0625000), wk =   0.0468750
        k(   50) = (  -0.1875000  -0.8125000   0.1875000), wk =   0.0234375
        k(   51) = (  -0.3125000   0.3125000   0.3125000), wk =   0.0078125
        k(   52) = (  -0.4375000   0.4375000   0.1875000), wk =   0.0234375
        k(   53) = (   0.4375000  -0.4375000   1.0625000), wk =   0.0234375
        k(   54) = (   0.3125000  -0.3125000   0.9375000), wk =   0.0234375
        k(   55) = (  -0.3125000   0.5625000   0.3125000), wk =   0.0234375
        k(   56) = (   0.5625000  -0.3125000   1.1875000), wk =   0.0468750
        k(   57) = (   0.4375000  -0.1875000   1.0625000), wk =   0.0468750
        k(   58) = (  -0.3125000  -1.1875000   0.3125000), wk =   0.0234375
        k(   59) = (  -0.4375000   0.4375000   0.4375000), wk =   0.0078125
        k(   60) = (   0.4375000  -0.4375000   1.3125000), wk =   0.0234375

                       cryst. coord.
        k(    1) = (   0.0625000   0.0625000   0.0625000), wk =   0.0078125
        k(    2) = (   0.0625000   0.0625000   0.1875000), wk =   0.0234375
        k(    3) = (   0.0625000   0.0625000   0.3125000), wk =   0.0234375
        k(    4) = (   0.0625000   0.0625000   0.4375000), wk =   0.0234375
        k(    5) = (   0.0625000   0.0625000  -0.4375000), wk =   0.0234375
        k(    6) = (   0.0625000   0.0625000  -0.3125000), wk =   0.0234375
        k(    7) = (   0.0625000   0.0625000  -0.1875000), wk =   0.0234375
        k(    8) = (   0.0625000   0.0625000  -0.0625000), wk =   0.0234375
        k(    9) = (   0.0625000   0.1875000   0.1875000), wk =   0.0234375
        k(   10) = (   0.0625000   0.1875000   0.3125000), wk =   0.0468750
        k(   11) = (   0.0625000   0.1875000   0.4375000), wk =   0.0468750
        k(   12) = (   0.0625000   0.1875000  -0.4375000), wk =   0.0468750
        k(   13) = (   0.0625000   0.1875000  -0.3125000), wk =   0.0468750
        k(   14) = (   0.0625000   0.1875000  -0.1875000), wk =   0.0468750
        k(   15) = (   0.0625000   0.1875000  -0.0625000), wk =   0.0468750
        k(   16) = (   0.0625000   0.3125000   0.3125000), wk =   0.0234375
        k(   17) = (   0.0625000   0.3125000   0.4375000), wk =   0.0468750
        k(   18) = (   0.0625000   0.3125000  -0.4375000), wk =   0.0468750
        k(   19) = (   0.0625000   0.3125000  -0.3125000), wk =   0.0468750
        k(   20) = (   0.0625000   0.3125000  -0.1875000), wk =   0.0468750
        k(   21) = (   0.0625000   0.3125000  -0.0625000), wk =   0.0468750
        k(   22) = (   0.0625000   0.4375000   0.4375000), wk =   0.0234375
        k(   23) = (   0.0625000   0.4375000  -0.4375000), wk =   0.0468750
        k(   24) = (   0.0625000   0.4375000  -0.3125000), wk =   0.0468750
        k(   25) = (   0.0625000   0.4375000  -0.1875000), wk =   0.0468750
        k(   26) = (   0.0625000   0.4375000  -0.0625000), wk =   0.0468750
        k(   27) = (   0.0625000  -0.4375000  -0.4375000), wk =   0.0234375
        k(   28) = (   0.0625000  -0.4375000  -0.3125000), wk =   0.0468750
        k(   29) = (   0.0625000  -0.4375000  -0.1875000), wk =   0.0468750
        k(   30) = (   0.0625000  -0.3125000  -0.3125000), wk =   0.0234375
        k(   31) = (   0.0625000  -0.3125000  -0.1875000), wk =   0.0468750
        k(   32) = (   0.0625000  -0.1875000  -0.1875000), wk =   0.0234375
        k(   33) = (   0.1875000   0.1875000   0.1875000), wk =   0.0078125
        k(   34) = (   0.1875000   0.1875000   0.3125000), wk =   0.0234375
        k(   35) = (   0.1875000   0.1875000   0.4375000), wk =   0.0234375
        k(   36) = (   0.1875000   0.1875000  -0.4375000), wk =   0.0234375
        k(   37) = (   0.1875000   0.1875000  -0.3125000), wk =   0.0234375
        k(   38) = (   0.1875000   0.1875000  -0.1875000), wk =   0.0234375
        k(   39) = (   0.1875000   0.3125000   0.3125000), wk =   0.0234375
        k(   40) = (   0.1875000   0.3125000   0.4375000), wk =   0.0468750
        k(   41) = (   0.1875000   0.3125000  -0.4375000), wk =   0.0468750
        k(   42) = (   0.1875000   0.3125000  -0.3125000), wk =   0.0468750
        k(   43) = (   0.1875000   0.3125000  -0.1875000), wk =   0.0468750
        k(   44) = (   0.1875000   0.4375000   0.4375000), wk =   0.0234375
        k(   45) = (   0.1875000   0.4375000  -0.4375000), wk =   0.0468750
        k(   46) = (   0.1875000   0.4375000  -0.3125000), wk =   0.0468750
        k(   47) = (   0.1875000   0.4375000  -0.1875000), wk =   0.0468750
        k(   48) = (   0.1875000  -0.4375000  -0.4375000), wk =   0.0234375
        k(   49) = (   0.1875000  -0.4375000  -0.3125000), wk =   0.0468750
        k(   50) = (   0.1875000  -0.3125000  -0.3125000), wk =   0.0234375
        k(   51) = (   0.3125000   0.3125000   0.3125000), wk =   0.0078125
        k(   52) = (   0.3125000   0.3125000   0.4375000), wk =   0.0234375
        k(   53) = (   0.3125000   0.3125000  -0.4375000), wk =   0.0234375
        k(   54) = (   0.3125000   0.3125000  -0.3125000), wk =   0.0234375
        k(   55) = (   0.3125000   0.4375000   0.4375000), wk =   0.0234375
        k(   56) = (   0.3125000   0.4375000  -0.4375000), wk =   0.0468750
        k(   57) = (   0.3125000   0.4375000  -0.3125000), wk =   0.0468750
        k(   58) = (   0.3125000  -0.4375000  -0.4375000), wk =   0.0234375
        k(   59) = (   0.4375000   0.4375000   0.4375000), wk =   0.0078125
        k(   60) = (   0.4375000   0.4375000  -0.4375000), wk =   0.0234375

     Dense  grid:     3143 G-vectors     FFT dimensions: (  24,  24,  24)

     Dynamical RAM for                 wfc:       0.01 MB

     Dynamical RAM for     wfc (w. buffer):       0.74 MB

     Dynamical RAM for                 EXX:      63.64 MB

     Dynamical RAM for           str. fact:       0.02 MB

     Dynamical RAM for           local pot:       0.00 MB

     Dynamical RAM for          nlocal pot:       0.03 MB

     Dynamical RAM for                qrad:       0.24 MB

     Dynamical RAM for          rho,v,vnew:       0.23 MB

     Dynamical RAM for               rhoin:       0.08 MB

     Dynamical RAM for            rho*nmix:       0.38 MB

     Dynamical RAM for           G-vectors:       0.10 MB

     Dynamical RAM for          h,s,v(r/c):       0.01 MB

     Dynamical RAM for          <psi|beta>:       0.00 MB

     Dynamical RAM for                 psi:       0.05 MB

     Dynamical RAM for                hpsi:       0.05 MB

     Dynamical RAM for      wfcinit/wfcrot:       0.05 MB

     Estimated static dynamical RAM per process >      65.79 MB

     Estimated max dynamical RAM per process >      65.90 MB

     Estimated total dynamical RAM >     131.79 MB

     Initial potential from superposition of free atoms

     starting charge    7.99889, renormalised to    8.00000
     Starting wfcs are    8 randomized atomic wfcs

     total cpu time spent up to now is        0.3 secs

     Self-consistent Calculation

     iteration #  1     ecut=    20.00 Ry     beta= 0.30
     Davidson diagonalization with overlap
     ethr =  1.00E-02,  avg # of iterations =  2.0

     Threshold (ethr) on eigenvalues was too large:
     Diagonalizing with lowered threshold

     Davidson diagonalization with overlap
     ethr =  7.51E-04,  avg # of iterations =  1.1

     total cpu time spent up to now is        0.6 secs

     total energy              =     -15.74310865 Ry
     Harris-Foulkes estimate   =     -15.75125660 Ry
     estimated scf accuracy    <       0.05938007 Ry

     iteration #  2     ecut=    20.00 Ry     beta= 0.30
     Davidson diagonalization with overlap
     ethr =  7.42E-04,  avg # of iterations =  1.0

     total cpu time spent up to now is        0.7 secs

     total energy              =     -15.73778699 Ry
     Harris-Foulkes estimate   =     -15.74362459 Ry
     estimated scf accuracy    <       0.02610104 Ry

     iteration #  3     ecut=    20.00 Ry     beta= 0.30
     Davidson diagonalization with overlap
     ethr =  3.26E-04,  avg # of iterations =  1.0

     total cpu time spent up to now is        0.8 secs

     total energy              =     -15.73943236 Ry
     Harris-Foulkes estimate   =     -15.73947758 Ry
     estimated scf accuracy    <       0.00037474 Ry

     iteration #  4     ecut=    20.00 Ry     beta= 0.30
     Davidson diagonalization with overlap
     ethr =  4.68E-06,  avg # of iterations =  3.1

     total cpu time spent up to now is        1.0 secs

     total energy              =     -15.73968442 Ry
     Harris-Foulkes estimate   =     -15.73972808 Ry
     estimated scf accuracy    <       0.00010895 Ry

     iteration #  5     ecut=    20.00 Ry     beta= 0.30
     Davidson diagonalization with overlap
     ethr =  1.36E-06,  avg # of iterations =  2.0

     total cpu time spent up to now is        1.1 secs

     total energy              =     -15.73969657 Ry
     Harris-Foulkes estimate   =     -15.73969728 Ry
     estimated scf accuracy    <       0.00000208 Ry

     iteration #  6     ecut=    20.00 Ry     beta= 0.30
     Davidson diagonalization with overlap
     ethr =  2.60E-08,  avg # of iterations =  3.0

     total cpu time spent up to now is        1.3 secs

     total energy              =     -15.73969791 Ry
     Harris-Foulkes estimate   =     -15.73969761 Ry
     estimated scf accuracy    <       0.00000008 Ry

     iteration #  7     ecut=    20.00 Ry     beta= 0.30
     Davidson diagonalization with overlap
     ethr =  1.01E-09,  avg # of iterations =  3.0

     total cpu time spent up to now is        1.5 secs

     total energy              =     -15.73969767 Ry
     Harris-Foulkes estimate   =     -15.73969802 Ry
     estimated scf accuracy    <       0.00000117 Ry

     iteration #  8     ecut=    20.00 Ry     beta= 0.30
     Davidson diagonalization with overlap
     ethr =  1.01E-09,  avg # of iterations =  3.0

     total cpu time spent up to now is        1.7 secs

     total energy              =     -15.73969776 Ry
     Harris-Foulkes estimate   =     -15.73969776 Ry
     estimated scf accuracy    <          2.9E-09 Ry

     iteration #  9     ecut=    20.00 Ry     beta= 0.30
     Davidson diagonalization with overlap
     ethr =  3.66E-11,  avg # of iterations =  2.2

     total cpu time spent up to now is        1.8 secs

     End of self-consistent calculation

          k =-0.0625 0.0625 0.0625 (   405 PWs)   bands (ev):

    -5.5545   5.8996   6.3343   6.3343

     occupation numbers 
     1.0000   1.0000   1.0000   1.0000

          k =-0.1875 0.1875-0.0625 (   391 PWs)   bands (ev):

    -5.2791   4.3982   5.5052   6.2185

     occupation numbers 
     1.0000   1.0000   1.0000   1.0000

          k =-0.3125 0.3125-0.1875 (   396 PWs)   bands (ev):

    -4.6132   2.1288   5.0143   5.7464

     occupation numbers 
     1.0000   1.0000   1.0000   1.0000

          k =-0.4375 0.4375-0.3125 (   403 PWs)   bands (ev):

    -3.6775   0.1902   4.8000   5.3299

     occupation numbers 
     1.0000   1.0000   1.0000   1.0000

          k = 0.4375-0.4375 0.5625 (   401 PWs)   bands (ev):

    -3.2044  -0.5398   4.8557   5.1044

     occupation numbers 
     1.0000   1.0000   1.0000   1.0000

          k = 0.3125-0.3125 0.4375 (   405 PWs)   bands (ev):

    -3.9995   0.7659   5.1217   5.1501

     occupation numbers 
     1.0000   1.0000   1.0000   1.0000

          k = 0.1875-0.1875 0.3125 (   390 PWs)   bands (ev):

    -4.8746   2.8746   5.4006   5.6230

     occupation numbers 
     1.0000   1.0000   1.0000   1.0000

          k = 0.0625-0.0625 0.1875 (   393 PWs)   bands (ev):

    -5.4161   5.1600   5.8926   6.0713

     occupation numbers 
     1.0000   1.0000   1.0000   1.0000

          k =-0.0625 0.3125 0.0625 (   394 PWs)   bands (ev):

    -5.1407   4.2814   5.3182   5.4237

     occupation numbers 
     1.0000   1.0000   1.0000   1.0000

          k =-0.1875 0.4375-0.0625 (   393 PWs)   bands (ev):

    -4.6014   2.7599   4.3278   5.1544

     occupation numbers 
     1.0000   1.0000   1.0000   1.0000

          k =-0.3125 0.5625-0.1875 (   400 PWs)   bands (ev):

    -3.7286   0.8430   3.8416   4.7248

     occupation numbers 
     1.0000   1.0000   1.0000   1.0000

          k = 0.5625-0.3125 0.6875 (   398 PWs)   bands (ev):

    -2.9297  -0.4165   3.5522   4.6259

     occupation numbers 
     1.0000   1.0000   1.0000   1.0000

          k = 0.4375-0.1875 0.5625 (   400 PWs)   bands (ev):

    -3.4120   0.3044   3.4678   4.9228

     occupation numbers 
     1.0000   1.0000   1.0000   1.0000

          k = 0.3125-0.0625 0.4375 (   399 PWs)   bands (ev):

    -4.3456   2.0911   3.7564   5.4491

     occupation numbers 
     1.0000   1.0000   1.0000   1.0000

          k = 0.1875 0.0625 0.3125 (   392 PWs)   bands (ev):

    -5.0065   3.5816   4.9132   5.8358

     occupation numbers 
     1.0000   1.0000   1.0000   1.0000

          k =-0.0625 0.5625 0.0625 (   405 PWs)   bands (ev):

    -4.1904   2.2815   4.1793   4.3028

     occupation numbers 
     1.0000   1.0000   1.0000   1.0000

          k =-0.1875 0.6875-0.0625 (   405 PWs)   bands (ev):

    -3.4163   1.0190   3.3661   3.9438

     occupation numbers 
     1.0000   1.0000   1.0000   1.0000

          k = 0.6875-0.1875 0.8125 (   404 PWs)   bands (ev):

    -2.4824  -0.2230   2.5007   3.9122

     occupation numbers 
     1.0000   1.0000   1.0000   1.0000

          k = 0.5625-0.0625 0.6875 (   397 PWs)   bands (ev):

    -2.5527  -0.1285   2.1303   4.2692

     occupation numbers 
     1.0000   1.0000   1.0000   1.0000

          k = 0.4375 0.0625 0.5625 (   404 PWs)   bands (ev):

    -3.4833   0.8344   2.7637   4.8757

     occupation numbers 
     1.0000   1.0000   1.0000   1.0000

          k = 0.3125 0.1875 0.4375 (   399 PWs)   bands (ev):

    -4.2279   1.4471   4.4634   5.3490

     occupation numbers 
     1.0000   1.0000   1.0000   1.0000

          k =-0.0625 0.8125 0.0625 (   407 PWs)   bands (ev):

    -2.7461   0.1412   3.4673   3.6955

     occupation numbers 
     1.0000   1.0000   1.0000   1.0000

          k = 0.8125-0.0625 0.9375 (   407 PWs)   bands (ev):

    -1.8069  -0.8716   2.8840   3.4402

     occupation numbers 
     1.0000   1.0000   1.0000   1.0000

          k = 0.6875 0.0625 0.8125 (   401 PWs)   bands (ev):

    -1.8925  -0.7112   2.1229   3.7651

     occupation numbers 
     1.0000   1.0000   1.0000   1.0000

          k = 0.5625 0.1875 0.6875 (   403 PWs)   bands (ev):

    -2.6678  -0.3459   2.7324   4.3861

     occupation numbers 
     1.0000   1.0000   1.0000   1.0000

          k = 0.4375 0.3125 0.5625 (   398 PWs)   bands (ev):

    -3.2978  -0.2233   4.2959   4.9994

     occupation numbers 
     1.0000   1.0000   1.0000   1.0000

          k =-0.0625-0.9375 0.0625 (   400 PWs)   bands (ev):

    -1.8633  -0.8923   3.3258   3.5717

     occupation numbers 
     1.0000   1.0000   1.0000   1.0000

          k =-0.1875-0.8125-0.0625 (   407 PWs)   bands (ev):

    -2.6557   0.0771   3.0492   3.6034

     occupation numbers 
     1.0000   1.0000   1.0000   1.0000

          k =-0.3125-0.6875-0.1875 (   402 PWs)   bands (ev):

    -3.1340   0.2993   3.1404   4.2220

     occupation numbers 
     1.0000   1.0000   1.0000   1.0000

          k =-0.0625-0.6875 0.0625 (   403 PWs)   bands (ev):

    -3.5260   1.2108   3.7515   3.9412

     occupation numbers 
     1.0000   1.0000   1.0000   1.0000

          k =-0.1875-0.5625-0.0625 (   402 PWs)   bands (ev):

    -4.0688   1.9146   3.8034   4.4747

     occupation numbers 
     1.0000   1.0000   1.0000   1.0000

          k =-0.0625-0.4375 0.0625 (   398 PWs)   bands (ev):

    -4.7307   3.3160   4.7474   4.7696

     occupation numbers 
     1.0000   1.0000   1.0000   1.0000

          k =-0.1875 0.1875 0.1875 (   387 PWs)   bands (ev):

    -5.1437   3.6542   5.8829   5.8829

     occupation numbers 
     1.0000   1.0000   1.0000   1.0000

          k =-0.3125 0.3125 0.0625 (   390 PWs)   bands (ev):

    -4.7401   2.8236   4.3251   5.9087

     occupation numbers 
     1.0000   1.0000   1.0000   1.0000

          k =-0.4375 0.4375-0.0625 (   402 PWs)   bands (ev):

    -3.9692   1.4395   3.2119   5.3876

     occupation numbers 
     1.0000   1.0000   1.0000   1.0000

          k = 0.4375-0.4375 0.8125 (   404 PWs)   bands (ev):

    -3.0370  -0.1094   3.0757   4.8386

     occupation numbers 
     1.0000   1.0000   1.0000   1.0000

          k = 0.3125-0.3125 0.6875 (   401 PWs)   bands (ev):

    -3.0217  -0.1377   3.3907   4.5087

     occupation numbers 
     1.0000   1.0000   1.0000   1.0000

          k = 0.1875-0.1875 0.5625 (   399 PWs)   bands (ev):

    -3.9531   1.4350   4.0166   4.4811

     occupation numbers 
     1.0000   1.0000   1.0000   1.0000

          k =-0.1875 0.4375 0.1875 (   396 PWs)   bands (ev):

    -4.4756   2.1371   4.8760   4.9113

     occupation numbers 
     1.0000   1.0000   1.0000   1.0000

          k =-0.3125 0.5625 0.0625 (   405 PWs)   bands (ev):

    -3.8298   1.3855   3.2694   4.7143

     occupation numbers 
     1.0000   1.0000   1.0000   1.0000

          k = 0.5625-0.3125 0.9375 (   403 PWs)   bands (ev):

    -2.9063   0.2689   2.4485   4.1201

     occupation numbers 
     1.0000   1.0000   1.0000   1.0000

          k = 0.4375-0.1875 0.8125 (   402 PWs)   bands (ev):

    -2.3953  -0.3746   2.4630   3.7928

     occupation numbers 
     1.0000   1.0000   1.0000   1.0000

          k = 0.3125-0.0625 0.6875 (   406 PWs)   bands (ev):

    -3.2042   0.6775   2.8900   3.9804

     occupation numbers 
     1.0000   1.0000   1.0000   1.0000

          k =-0.1875 0.6875 0.1875 (   402 PWs)   bands (ev):

    -3.3179   0.7259   3.2435   4.1414

     occupation numbers 
     1.0000   1.0000   1.0000   1.0000

          k = 0.6875-0.1875 1.0625 (   403 PWs)   bands (ev):

    -2.4875  -0.0679   2.6304   3.4211

     occupation numbers 
     1.0000   1.0000   1.0000   1.0000

          k = 0.5625-0.0625 0.9375 (   403 PWs)   bands (ev):

    -1.6473  -0.8366   2.2902   2.8976

     occupation numbers 
     1.0000   1.0000   1.0000   1.0000

          k = 0.4375 0.0625 0.8125 (   401 PWs)   bands (ev):

    -2.2700  -0.2855   2.2915   3.3923

     occupation numbers 
     1.0000   1.0000   1.0000   1.0000

          k =-0.1875-1.0625 0.1875 (   405 PWs)   bands (ev):

    -1.8212  -0.8241   2.4005   3.7898

     occupation numbers 
     1.0000   1.0000   1.0000   1.0000

          k =-0.3125-0.9375 0.0625 (   401 PWs)   bands (ev):

    -1.7183  -0.8475   2.4981   3.1268

     occupation numbers 
     1.0000   1.0000   1.0000   1.0000

          k =-0.1875-0.8125 0.1875 (   405 PWs)   bands (ev):

    -2.5889  -0.0359   2.6841   3.9082

     occupation numbers 
     1.0000   1.0000   1.0000   1.0000

          k =-0.3125 0.3125 0.3125 (   401 PWs)   bands (ev):

    -4.3634   1.4034   5.4621   5.4621

     occupation numbers 
     1.0000   1.0000   1.0000   1.0000

          k =-0.4375 0.4375 0.1875 (   400 PWs)   bands (ev):

    -3.8674   0.8241   3.9684   5.3741

     occupation numbers 
     1.0000   1.0000   1.0000   1.0000

          k = 0.4375-0.4375 1.0625 (   403 PWs)   bands (ev):

    -3.0473   0.3230   2.3671   4.7716

     occupation numbers 
     1.0000   1.0000   1.0000   1.0000

          k = 0.3125-0.3125 0.9375 (   400 PWs)   bands (ev):

    -2.1928  -0.4644   2.0036   4.2066

     occupation numbers 
     1.0000   1.0000   1.0000   1.0000

          k =-0.3125 0.5625 0.3125 (   401 PWs)   bands (ev):

    -3.5399   0.2467   4.3285   4.7888

     occupation numbers 
     1.0000   1.0000   1.0000   1.0000

          k = 0.5625-0.3125 1.1875 (   403 PWs)   bands (ev):

    -2.8969  -0.0973   2.9661   4.2909

     occupation numbers 
     1.0000   1.0000   1.0000   1.0000

          k = 0.4375-0.1875 1.0625 (   398 PWs)   bands (ev):

    -2.0518  -0.5214   2.0981   3.5498

     occupation numbers 
     1.0000   1.0000   1.0000   1.0000

          k =-0.3125-1.1875 0.3125 (   400 PWs)   bands (ev):

    -2.5231  -0.3737   2.5458   4.3096

     occupation numbers 
     1.0000   1.0000   1.0000   1.0000

          k =-0.4375 0.4375 0.4375 (   401 PWs)   bands (ev):

    -3.4343  -0.2949   5.2382   5.2382

     occupation numbers 
     1.0000   1.0000   1.0000   1.0000

          k = 0.4375-0.4375 1.3125 (   399 PWs)   bands (ev):

    -3.0679  -0.4692   3.9989   4.9588

     occupation numbers 
     1.0000   1.0000   1.0000   1.0000

     highest occupied level (ev):     6.3343

!    total energy              =     -15.73969776 Ry
     Harris-Foulkes estimate   =     -15.73969776 Ry
     estimated scf accuracy    <          2.7E-10 Ry

     convergence has been achieved in   9 iterations

     Using ACE for calculation of exact exchange

     EXX grid:     3143 G-vectors     FFT dimensions: (  24,  24,  24)

     EXX: now go back to refine exchange calculation

     total cpu time spent up to now is        4.0 secs

     Self-consistent Calculation

     iteration #  1     ecut=    20.00 Ry     beta= 0.30
     Davidson diagonalization with overlap
     ethr =  3.66E-11,  avg # of iterations =  8.2

     total cpu time spent up to now is        4.4 secs

     total energy              =     -15.78157301 Ry
     Harris-Foulkes estimate   =     -15.78158148 Ry
     estimated scf accuracy    <       0.00005258 Ry

     iteration #  2     ecut=    20.00 Ry     beta= 0.30
     Davidson diagonalization with overlap
     ethr =  6.57E-07,  avg # of iterations =  1.0

     total cpu time spent up to now is        4.5 secs

     total energy              =     -15.78156768 Ry
     Harris-Foulkes estimate   =     -15.78157352 Ry
     estimated scf accuracy    <       0.00002223 Ry

     iteration #  3     ecut=    20.00 Ry     beta= 0.30
     Davidson diagonalization with overlap
     ethr =  2.78E-07,  avg # of iterations =  1.1

     total cpu time spent up to now is        4.6 secs

     total energy              =     -15.78156950 Ry
     Harris-Foulkes estimate   =     -15.78156951 Ry
     estimated scf accuracy    <       0.00000034 Ry

     iteration #  4     ecut=    20.00 Ry     beta= 0.30
     Davidson diagonalization with overlap
     ethr =  4.31E-09,  avg # of iterations =  2.2

     total cpu time spent up to now is        4.8 secs

     total energy              =     -15.78156958 Ry
     Harris-Foulkes estimate   =     -15.78156966 Ry
     estimated scf accuracy    <       0.00000013 Ry

     iteration #  5     ecut=    20.00 Ry     beta= 0.30
     Davidson diagonalization with overlap
     ethr =  1.64E-09,  avg # of iterations =  2.0

     total cpu time spent up to now is        4.9 secs

     total energy              =     -15.78156961 Ry
     Harris-Foulkes estimate   =     -15.78156961 Ry
     estimated scf accuracy    <          4.0E-09 Ry

     iteration #  6     ecut=    20.00 Ry     beta= 0.30
     Davidson diagonalization with overlap
     ethr =  5.04E-11,  avg # of iterations =  2.0

     total cpu time spent up to now is        5.0 secs

     total energy              =     -15.78156961 Ry
     Harris-Foulkes estimate   =     -15.78156961 Ry
     estimated scf accuracy    <          9.1E-09 Ry

     iteration #  7     ecut=    20.00 Ry     beta= 0.30
     Davidson diagonalization with overlap
     ethr =  5.04E-11,  avg # of iterations =  2.0

     total cpu time spent up to now is        5.2 secs

     End of self-consistent calculation

          k =-0.0625 0.0625 0.0625 (   405 PWs)   bands (ev):

    -7.6465   4.7734   5.2052   5.2052

     occupation numbers 
     1.0000   1.0000   1.0000   1.0000

          k =-0.1875 0.1875-0.0625 (   391 PWs)   bands (ev):

    -7.3454   3.2543   4.3728   5.1113

     occupation numbers 
     1.0000   1.0000   1.0000   1.0000

          k =-0.3125 0.3125-0.1875 (   396 PWs)   bands (ev):

    -6.6500   0.9260   3.8783   4.6461

     occupation numbers 
     1.0000   1.0000   1.0000   1.0000

          k =-0.4375 0.4375-0.3125 (   403 PWs)   bands (ev):

    -5.6507  -1.1365   3.6381   4.2027

     occupation numbers 
     1.0000   1.0000   1.0000   1.0000

          k = 0.4375-0.4375 0.5625 (   401 PWs)   bands (ev):

    -5.0702  -2.0283   3.7015   3.9344

     occupation numbers 
     1.0000   1.0000   1.0000   1.0000

          k = 0.3125-0.3125 0.4375 (   405 PWs)   bands (ev):

    -6.0047  -0.5029   3.9639   4.0424

     occupation numbers 
     1.0000   1.0000   1.0000   1.0000

          k = 0.1875-0.1875 0.3125 (   390 PWs)   bands (ev):

    -6.9217   1.6946   4.2619   4.5329

     occupation numbers 
     1.0000   1.0000   1.0000   1.0000

          k = 0.0625-0.0625 0.1875 (   393 PWs)   bands (ev):

    -7.4921   4.0318   4.7543   4.9576

     occupation numbers 
     1.0000   1.0000   1.0000   1.0000

          k =-0.0625 0.3125 0.0625 (   394 PWs)   bands (ev):

    -7.1974   3.1551   4.1664   4.3079

     occupation numbers 
     1.0000   1.0000   1.0000   1.0000

          k =-0.1875 0.4375-0.0625 (   393 PWs)   bands (ev):

    -6.6299   1.5900   3.1724   4.0478

     occupation numbers 
     1.0000   1.0000   1.0000   1.0000

          k =-0.3125 0.5625-0.1875 (   400 PWs)   bands (ev):

    -5.6994  -0.4478   2.6874   3.5892

     occupation numbers 
     1.0000   1.0000   1.0000   1.0000

          k = 0.5625-0.3125 0.6875 (   398 PWs)   bands (ev):

    -4.7430  -1.9148   2.3844   3.4617

     occupation numbers 
     1.0000   1.0000   1.0000   1.0000

          k = 0.4375-0.1875 0.5625 (   400 PWs)   bands (ev):

    -5.3272  -1.0675   2.2912   3.7932

     occupation numbers 
     1.0000   1.0000   1.0000   1.0000

          k = 0.3125-0.0625 0.4375 (   399 PWs)   bands (ev):

    -6.3599   0.8814   2.5918   4.3549

     occupation numbers 
     1.0000   1.0000   1.0000   1.0000

          k = 0.1875 0.0625 0.3125 (   392 PWs)   bands (ev):

    -7.0556   2.4262   3.7706   4.7394

     occupation numbers 
     1.0000   1.0000   1.0000   1.0000

          k =-0.0625 0.5625 0.0625 (   405 PWs)   bands (ev):

    -6.2069   1.1303   3.0186   3.1230

     occupation numbers 
     1.0000   1.0000   1.0000   1.0000

          k =-0.1875 0.6875-0.0625 (   405 PWs)   bands (ev):

    -5.3779  -0.2486   2.1939   2.7738

     occupation numbers 
     1.0000   1.0000   1.0000   1.0000

          k = 0.6875-0.1875 0.8125 (   404 PWs)   bands (ev):

    -4.2715  -1.7343   1.3376   2.7292

     occupation numbers 
     1.0000   1.0000   1.0000   1.0000

          k = 0.5625-0.0625 0.6875 (   397 PWs)   bands (ev):

    -4.3447  -1.6223   0.9710   3.1122

     occupation numbers 
     1.0000   1.0000   1.0000   1.0000

          k = 0.4375 0.0625 0.5625 (   404 PWs)   bands (ev):

    -5.4047  -0.5260   1.5918   3.7534

     occupation numbers 
     1.0000   1.0000   1.0000   1.0000

          k = 0.3125 0.1875 0.4375 (   399 PWs)   bands (ev):

    -6.2410   0.2141   3.3136   4.2443

     occupation numbers 
     1.0000   1.0000   1.0000   1.0000

          k =-0.0625 0.8125 0.0625 (   407 PWs)   bands (ev):

    -4.6731  -1.1778   2.2659   2.4843

     occupation numbers 
     1.0000   1.0000   1.0000   1.0000

          k = 0.8125-0.0625 0.9375 (   407 PWs)   bands (ev):

    -3.5435  -2.4334   1.6860   2.2301

     occupation numbers 
     1.0000   1.0000   1.0000   1.0000

          k = 0.6875 0.0625 0.8125 (   401 PWs)   bands (ev):

    -3.6240  -2.2684   0.9531   2.5788

     occupation numbers 
     1.0000   1.0000   1.0000   1.0000

          k = 0.5625 0.1875 0.6875 (   403 PWs)   bands (ev):

    -4.4554  -1.8473   1.5613   3.2250

     occupation numbers 
     1.0000   1.0000   1.0000   1.0000

          k = 0.4375 0.3125 0.5625 (   398 PWs)   bands (ev):

    -5.1952  -1.6439   3.1305   3.8506

     occupation numbers 
     1.0000   1.0000   1.0000   1.0000

          k =-0.0625-0.9375 0.0625 (   400 PWs)   bands (ev):

    -3.6418  -2.4213   2.1106   2.3454

     occupation numbers 
     1.0000   1.0000   1.0000   1.0000

          k =-0.1875-0.8125-0.0625 (   407 PWs)   bands (ev):

    -4.5330  -1.3179   1.8670   2.4058

     occupation numbers 
     1.0000   1.0000   1.0000   1.0000

          k =-0.3125-0.6875-0.1875 (   402 PWs)   bands (ev):

    -5.0272  -1.0970   1.9853   3.0535

     occupation numbers 
     1.0000   1.0000   1.0000   1.0000

          k =-0.0625-0.6875 0.0625 (   403 PWs)   bands (ev):

    -5.5127   0.0044   2.5694   2.7463

     occupation numbers 
     1.0000   1.0000   1.0000   1.0000

          k =-0.1875-0.5625-0.0625 (   402 PWs)   bands (ev):

    -6.0717   0.7145   2.6381   3.3392

     occupation numbers 
     1.0000   1.0000   1.0000   1.0000

          k =-0.0625-0.4375 0.0625 (   398 PWs)   bands (ev):

    -6.7683   2.1870   3.6040   3.6106

     occupation numbers 
     1.0000   1.0000   1.0000   1.0000

          k =-0.1875 0.1875 0.1875 (   387 PWs)   bands (ev):

    -7.2060   2.4902   4.7661   4.7661

     occupation numbers 
     1.0000   1.0000   1.0000   1.0000

          k =-0.3125 0.3125 0.0625 (   390 PWs)   bands (ev):

    -6.7767   1.6455   3.1745   4.8165

     occupation numbers 
     1.0000   1.0000   1.0000   1.0000

          k =-0.4375 0.4375-0.0625 (   402 PWs)   bands (ev):

    -5.9546   0.1696   2.0382   4.2818

     occupation numbers 
     1.0000   1.0000   1.0000   1.0000

          k = 0.4375-0.4375 0.8125 (   404 PWs)   bands (ev):

    -4.8787  -1.5579   1.8975   3.6906

     occupation numbers 
     1.0000   1.0000   1.0000   1.0000

          k = 0.3125-0.3125 0.6875 (   401 PWs)   bands (ev):

    -4.8760  -1.5921   2.2365   3.3268

     occupation numbers 
     1.0000   1.0000   1.0000   1.0000

          k = 0.1875-0.1875 0.5625 (   399 PWs)   bands (ev):

    -5.9487   0.1995   2.9036   3.3035

     occupation numbers 
     1.0000   1.0000   1.0000   1.0000

          k =-0.1875 0.4375 0.1875 (   396 PWs)   bands (ev):

    -6.5006   0.9380   3.7514   3.7870

     occupation numbers 
     1.0000   1.0000   1.0000   1.0000

          k =-0.3125 0.5625 0.0625 (   405 PWs)   bands (ev):

    -5.8054   0.1172   2.0963   3.6018

     occupation numbers 
     1.0000   1.0000   1.0000   1.0000

          k = 0.5625-0.3125 0.9375 (   403 PWs)   bands (ev):

    -4.7479  -1.1783   1.2881   2.9742

     occupation numbers 
     1.0000   1.0000   1.0000   1.0000

          k = 0.4375-0.1875 0.8125 (   402 PWs)   bands (ev):

    -4.1607  -1.9032   1.3001   2.6208

     occupation numbers 
     1.0000   1.0000   1.0000   1.0000

          k = 0.3125-0.0625 0.6875 (   406 PWs)   bands (ev):

    -5.1121  -0.6879   1.7229   2.8338

     occupation numbers 
     1.0000   1.0000   1.0000   1.0000

          k =-0.1875 0.6875 0.1875 (   402 PWs)   bands (ev):

    -5.2616  -0.5895   2.0991   2.9502

     occupation numbers 
     1.0000   1.0000   1.0000   1.0000

          k = 0.6875-0.1875 1.0625 (   403 PWs)   bands (ev):

    -4.3015  -1.5431   1.4659   2.2379

     occupation numbers 
     1.0000   1.0000   1.0000   1.0000

          k = 0.5625-0.0625 0.9375 (   403 PWs)   bands (ev):

    -3.3543  -2.4258   1.1150   1.7073

     occupation numbers 
     1.0000   1.0000   1.0000   1.0000

          k = 0.4375 0.0625 0.8125 (   401 PWs)   bands (ev):

    -4.0421  -1.8040   1.1319   2.2171

[...]

          k =-0.0625-0.4375 0.0625 (   398 PWs)   bands (ev):

    -6.7656   2.1911   3.5975   3.6068

     occupation numbers 
     1.0000   1.0000   1.0000   1.0000

          k =-0.1875 0.1875 0.1875 (   387 PWs)   bands (ev):

    -7.2039   2.4915   4.7526   4.7526

     occupation numbers 
     1.0000   1.0000   1.0000   1.0000

          k =-0.3125 0.3125 0.0625 (   390 PWs)   bands (ev):

    -6.7737   1.6484   3.1718   4.8069

     occupation numbers 
     1.0000   1.0000   1.0000   1.0000

          k =-0.4375 0.4375-0.0625 (   402 PWs)   bands (ev):

    -5.9513   0.1713   2.0382   4.2749

     occupation numbers 
     1.0000   1.0000   1.0000   1.0000

          k = 0.4375-0.4375 0.8125 (   404 PWs)   bands (ev):

    -4.8771  -1.5572   1.8984   3.6834

     occupation numbers 
     1.0000   1.0000   1.0000   1.0000

          k = 0.3125-0.3125 0.6875 (   401 PWs)   bands (ev):

    -4.8747  -1.5932   2.2385   3.3184

     occupation numbers 
     1.0000   1.0000   1.0000   1.0000

          k = 0.1875-0.1875 0.5625 (   399 PWs)   bands (ev):

    -5.9462   0.2023   2.9051   3.2967

     occupation numbers 
     1.0000   1.0000   1.0000   1.0000

          k =-0.1875 0.4375 0.1875 (   396 PWs)   bands (ev):

    -6.4979   0.9413   3.7434   3.7857

     occupation numbers 
     1.0000   1.0000   1.0000   1.0000

          k =-0.3125 0.5625 0.0625 (   405 PWs)   bands (ev):

    -5.8021   0.1195   2.0966   3.6000

     occupation numbers 
     1.0000   1.0000   1.0000   1.0000

          k = 0.5625-0.3125 0.9375 (   403 PWs)   bands (ev):

    -4.7445  -1.1764   1.2891   2.9730

     occupation numbers 
     1.0000   1.0000   1.0000   1.0000

          k = 0.4375-0.1875 0.8125 (   402 PWs)   bands (ev):

    -4.1575  -1.9022   1.3020   2.6188

     occupation numbers 
     1.0000   1.0000   1.0000   1.0000

          k = 0.3125-0.0625 0.6875 (   406 PWs)   bands (ev):

    -5.1089  -0.6865   1.7236   2.8328

     occupation numbers 
     1.0000   1.0000   1.0000   1.0000

          k =-0.1875 0.6875 0.1875 (   402 PWs)   bands (ev):

    -5.2596  -0.5890   2.1011   2.9434

     occupation numbers 
     1.0000   1.0000   1.0000   1.0000

          k = 0.6875-0.1875 1.0625 (   403 PWs)   bands (ev):

    -4.2989  -1.5422   1.4666   2.2368

     occupation numbers 
     1.0000   1.0000   1.0000   1.0000

          k = 0.5625-0.0625 0.9375 (   403 PWs)   bands (ev):

    -3.3514  -2.4239   1.1156   1.7073

     occupation numbers 
     1.0000   1.0000   1.0000   1.0000

          k = 0.4375 0.0625 0.8125 (   401 PWs)   bands (ev):

    -4.0385  -1.8021   1.1328   2.2168

     occupation numbers 
     1.0000   1.0000   1.0000   1.0000

          k =-0.1875-1.0625 0.1875 (   405 PWs)   bands (ev):

    -3.5461  -2.3914   1.2191   2.5775

     occupation numbers 
     1.0000   1.0000   1.0000   1.0000

          k =-0.3125-0.9375 0.0625 (   401 PWs)   bands (ev):

    -3.4296  -2.4278   1.3145   1.9291

     occupation numbers 
     1.0000   1.0000   1.0000   1.0000

          k =-0.1875-0.8125 0.1875 (   405 PWs)   bands (ev):

    -4.4270  -1.4920   1.5161   2.7004

     occupation numbers 
     1.0000   1.0000   1.0000   1.0000

          k =-0.3125 0.3125 0.3125 (   401 PWs)   bands (ev):

    -6.3927   0.1750   4.3246   4.3246

     occupation numbers 
     1.0000   1.0000   1.0000   1.0000

          k =-0.4375 0.4375 0.1875 (   400 PWs)   bands (ev):

    -5.8477  -0.4608   2.7966   4.2539

     occupation numbers 
     1.0000   1.0000   1.0000   1.0000

          k = 0.4375-0.4375 1.0625 (   403 PWs)   bands (ev):

    -4.8933  -1.1182   1.2040   3.6221

     occupation numbers 
     1.0000   1.0000   1.0000   1.0000

          k = 0.3125-0.3125 0.9375 (   400 PWs)   bands (ev):

    -3.9509  -1.9868   0.8439   3.0266

     occupation numbers 
     1.0000   1.0000   1.0000   1.0000

          k =-0.3125 0.5625 0.3125 (   401 PWs)   bands (ev):

    -5.4899  -1.0930   3.2046   3.6006

     occupation numbers 
     1.0000   1.0000   1.0000   1.0000

          k = 0.5625-0.3125 1.1875 (   403 PWs)   bands (ev):

    -4.7237  -1.5608   1.7992   3.1342

     occupation numbers 
     1.0000   1.0000   1.0000   1.0000

          k = 0.4375-0.1875 1.0625 (   398 PWs)   bands (ev):

    -3.7965  -2.0598   0.9366   2.3729

     occupation numbers 
     1.0000   1.0000   1.0000   1.0000

          k =-0.3125-1.1875 0.3125 (   400 PWs)   bands (ev):

    -4.2947  -1.8957   1.3812   3.1253

     occupation numbers 
     1.0000   1.0000   1.0000   1.0000

          k =-0.4375 0.4375 0.4375 (   401 PWs)   bands (ev):

    -5.3769  -1.6930   4.0677   4.0677

     occupation numbers 
     1.0000   1.0000   1.0000   1.0000

          k = 0.4375-0.4375 1.3125 (   399 PWs)   bands (ev):

    -4.9012  -1.9585   2.8262   3.7909

     occupation numbers 
     1.0000   1.0000   1.0000   1.0000

     highest occupied level (ev):     5.1852

!    total energy              =     -15.78168549 Ry
     Harris-Foulkes estimate   =     -15.78168549 Ry
     estimated scf accuracy    <          5.2E-10 Ry

     convergence has been achieved in   1 iterations

     Using ACE for calculation of exact exchange

     total energy              =     -15.78168550 Ry
     Harris-Foulkes estimate   =     -15.78168550 Ry
     est. exchange err (dexx)  =          6.1E-09 Ry
     - averaged Fock potential =       2.19646383 Ry
     + Fock energy (ACE)       =      -1.09823546 Ry

     EXX: now go back to refine exchange calculation

     total cpu time spent up to now is       17.7 secs

     Self-consistent Calculation

     iteration #  1     ecut=    20.00 Ry     beta= 0.30
     Davidson diagonalization with overlap
     ethr =  2.34E-11,  avg # of iterations =  2.6

     Threshold (ethr) on eigenvalues was too large:
     Diagonalizing with lowered threshold

     Davidson diagonalization with overlap
     ethr =  1.45E-13,  avg # of iterations =  2.9

     total cpu time spent up to now is       18.1 secs

     End of self-consistent calculation

          k =-0.0625 0.0625 0.0625 (   405 PWs)   bands (ev):

    -7.6453   4.7613   5.1852   5.1852

     occupation numbers 
     1.0000   1.0000   1.0000   1.0000

          k =-0.1875 0.1875-0.0625 (   391 PWs)   bands (ev):

    -7.3431   3.2540   4.3639   5.0966

     occupation numbers 
     1.0000   1.0000   1.0000   1.0000

          k =-0.3125 0.3125-0.1875 (   396 PWs)   bands (ev):

    -6.6478   0.9290   3.8709   4.6348

     occupation numbers 
     1.0000   1.0000   1.0000   1.0000

          k =-0.4375 0.4375-0.3125 (   403 PWs)   bands (ev):

    -5.6507  -1.1352   3.6300   4.1910

     occupation numbers 
     1.0000   1.0000   1.0000   1.0000

          k = 0.4375-0.4375 0.5625 (   401 PWs)   bands (ev):

    -5.0728  -2.0295   3.6934   3.9212

     occupation numbers 
     1.0000   1.0000   1.0000   1.0000

          k = 0.3125-0.3125 0.4375 (   405 PWs)   bands (ev):

    -6.0037  -0.5005   3.9527   4.0351

     occupation numbers 
     1.0000   1.0000   1.0000   1.0000

          k = 0.1875-0.1875 0.3125 (   390 PWs)   bands (ev):

    -6.9193   1.6972   4.2515   4.5248

     occupation numbers 
     1.0000   1.0000   1.0000   1.0000

          k = 0.0625-0.0625 0.1875 (   393 PWs)   bands (ev):

    -7.4902   4.0278   4.7412   4.9445

     occupation numbers 
     1.0000   1.0000   1.0000   1.0000

          k =-0.0625 0.3125 0.0625 (   394 PWs)   bands (ev):

    -7.1947   3.1562   4.1579   4.3017

     occupation numbers 
     1.0000   1.0000   1.0000   1.0000

          k =-0.1875 0.4375-0.0625 (   393 PWs)   bands (ev):

    -6.6268   1.5937   3.1699   4.0437

     occupation numbers 
     1.0000   1.0000   1.0000   1.0000

          k =-0.3125 0.5625-0.1875 (   400 PWs)   bands (ev):

    -5.6969  -0.4462   2.6871   3.5844

     occupation numbers 
     1.0000   1.0000   1.0000   1.0000

          k = 0.5625-0.3125 0.6875 (   398 PWs)   bands (ev):

    -4.7417  -1.9155   2.3854   3.4549

     occupation numbers 
     1.0000   1.0000   1.0000   1.0000

          k = 0.4375-0.1875 0.5625 (   400 PWs)   bands (ev):

    -5.3249  -1.0666   2.2910   3.7877

     occupation numbers 
     1.0000   1.0000   1.0000   1.0000

          k = 0.3125-0.0625 0.4375 (   399 PWs)   bands (ev):

    -6.3567   0.8845   2.5909   4.3496

     occupation numbers 
     1.0000   1.0000   1.0000   1.0000

          k = 0.1875 0.0625 0.3125 (   392 PWs)   bands (ev):

    -7.0528   2.4284   3.7657   4.7305

     occupation numbers 
     1.0000   1.0000   1.0000   1.0000

          k =-0.0625 0.5625 0.0625 (   405 PWs)   bands (ev):

    -6.2046   1.1354   3.0155   3.1173

     occupation numbers 
     1.0000   1.0000   1.0000   1.0000

          k =-0.1875 0.6875-0.0625 (   405 PWs)   bands (ev):

    -5.3757  -0.2462   2.1937   2.7703

     occupation numbers 
     1.0000   1.0000   1.0000   1.0000

          k = 0.6875-0.1875 0.8125 (   404 PWs)   bands (ev):

    -4.2695  -1.7341   1.3400   2.7242

     occupation numbers 
     1.0000   1.0000   1.0000   1.0000

          k = 0.5625-0.0625 0.6875 (   397 PWs)   bands (ev):

    -4.3418  -1.6199   0.9724   3.1083

     occupation numbers 
     1.0000   1.0000   1.0000   1.0000

          k = 0.4375 0.0625 0.5625 (   404 PWs)   bands (ev):

    -5.4015  -0.5245   1.5928   3.7494

     occupation numbers 
     1.0000   1.0000   1.0000   1.0000

          k = 0.3125 0.1875 0.4375 (   399 PWs)   bands (ev):

    -6.2386   0.2170   3.3097   4.2371

     occupation numbers 
     1.0000   1.0000   1.0000   1.0000

          k =-0.0625 0.8125 0.0625 (   407 PWs)   bands (ev):

    -4.6742  -1.1774   2.2622   2.4776

     occupation numbers 
     1.0000   1.0000   1.0000   1.0000

          k = 0.8125-0.0625 0.9375 (   407 PWs)   bands (ev):

    -3.5444  -2.4344   1.6857   2.2254

     occupation numbers 
     1.0000   1.0000   1.0000   1.0000

          k = 0.6875 0.0625 0.8125 (   401 PWs)   bands (ev):

    -3.6223  -2.2665   0.9545   2.5742

     occupation numbers 
     1.0000   1.0000   1.0000   1.0000

          k = 0.5625 0.1875 0.6875 (   403 PWs)   bands (ev):

    -4.4529  -1.8470   1.5632   3.2201

     occupation numbers 
     1.0000   1.0000   1.0000   1.0000

          k = 0.4375 0.3125 0.5625 (   398 PWs)   bands (ev):

    -5.1948  -1.6442   3.1273   3.8414

     occupation numbers 
     1.0000   1.0000   1.0000   1.0000

          k =-0.0625-0.9375 0.0625 (   400 PWs)   bands (ev):

    -3.6460  -2.4250   2.1065   2.3376

     occupation numbers 
     1.0000   1.0000   1.0000   1.0000

          k =-0.1875-0.8125-0.0625 (   407 PWs)   bands (ev):

    -4.5322  -1.3178   1.8669   2.4014

     occupation numbers 
     1.0000   1.0000   1.0000   1.0000

          k =-0.3125-0.6875-0.1875 (   402 PWs)   bands (ev):

    -5.0247  -1.0970   1.9873   3.0483

     occupation numbers 
     1.0000   1.0000   1.0000   1.0000

          k =-0.0625-0.6875 0.0625 (   403 PWs)   bands (ev):

    -5.5116   0.0084   2.5662   2.7405

     occupation numbers 
     1.0000   1.0000   1.0000   1.0000

          k =-0.1875-0.5625-0.0625 (   402 PWs)   bands (ev):

    -6.0689   0.7185   2.6370   3.3364

     occupation numbers 
     1.0000   1.0000   1.0000   1.0000

          k =-0.0625-0.4375 0.0625 (   398 PWs)   bands (ev):

    -6.7655   2.1911   3.5976   3.6068

     occupation numbers 
     1.0000   1.0000   1.0000   1.0000

          k =-0.1875 0.1875 0.1875 (   387 PWs)   bands (ev):

    -7.2038   2.4915   4.7527   4.7527

     occupation numbers 
     1.0000   1.0000   1.0000   1.0000

          k =-0.3125 0.3125 0.0625 (   390 PWs)   bands (ev):

    -6.7737   1.6485   3.1719   4.8070

     occupation numbers 
     1.0000   1.0000   1.0000   1.0000

          k =-0.4375 0.4375-0.0625 (   402 PWs)   bands (ev):

    -5.9513   0.1713   2.0382   4.2750

     occupation numbers 
     1.0000   1.0000   1.0000   1.0000

          k = 0.4375-0.4375 0.8125 (   404 PWs)   bands (ev):

    -4.8771  -1.5572   1.8985   3.6835

     occupation numbers 
     1.0000   1.0000   1.0000   1.0000

          k = 0.3125-0.3125 0.6875 (   401 PWs)   bands (ev):

    -4.8746  -1.5932   2.2386   3.3185

     occupation numbers 
     1.0000   1.0000   1.0000   1.0000

          k = 0.1875-0.1875 0.5625 (   399 PWs)   bands (ev):

    -5.9462   0.2024   2.9052   3.2968

     occupation numbers 
     1.0000   1.0000   1.0000   1.0000

          k =-0.1875 0.4375 0.1875 (   396 PWs)   bands (ev):

    -6.4979   0.9414   3.7435   3.7857

     occupation numbers 
     1.0000   1.0000   1.0000   1.0000

          k =-0.3125 0.5625 0.0625 (   405 PWs)   bands (ev):

    -5.8020   0.1196   2.0966   3.6000

     occupation numbers 
     1.0000   1.0000   1.0000   1.0000

          k = 0.5625-0.3125 0.9375 (   403 PWs)   bands (ev):

    -4.7444  -1.1764   1.2891   2.9731

     occupation numbers 
     1.0000   1.0000   1.0000   1.0000

          k = 0.4375-0.1875 0.8125 (   402 PWs)   bands (ev):

    -4.1574  -1.9021   1.3021   2.6189

     occupation numbers 
     1.0000   1.0000   1.0000   1.0000

          k = 0.3125-0.0625 0.6875 (   406 PWs)   bands (ev):

    -5.1089  -0.6864   1.7236   2.8329

     occupation numbers 
     1.0000   1.0000   1.0000   1.0000

          k =-0.1875 0.6875 0.1875 (   402 PWs)   bands (ev):

    -5.2596  -0.5890   2.1012   2.9434

     occupation numbers 
     1.0000   1.0000   1.0000   1.0000

          k = 0.6875-0.1875 1.0625 (   403 PWs)   bands (ev):

    -4.2988  -1.5421   1.4666   2.2368

     occupation numbers 
     1.0000   1.0000   1.0000   1.0000

          k = 0.5625-0.0625 0.9375 (   403 PWs)   bands (ev):

    -3.3514  -2.4239   1.1157   1.7073

     occupation numbers 
     1.0000   1.0000   1.0000   1.0000

          k = 0.4375 0.0625 0.8125 (   401 PWs)   bands (ev):

    -4.0384  -1.8020   1.1328   2.2169

     occupation numbers 
     1.0000   1.0000   1.0000   1.0000

          k =-0.1875-1.0625 0.1875 (   405 PWs)   bands (ev):

    -3.5460  -2.3913   1.2191   2.5776

     occupation numbers 
     1.0000   1.0000   1.0000   1.0000

          k =-0.3125-0.9375 0.0625 (   401 PWs)   bands (ev):

    -3.4295  -2.4278   1.3146   1.9292

     occupation numbers 
     1.0000   1.0000   1.0000   1.0000

          k =-0.1875-0.8125 0.1875 (   405 PWs)   bands (ev):

    -4.4269  -1.4919   1.5162   2.7005

     occupation numbers 
     1.0000   1.0000   1.0000   1.0000

          k =-0.3125 0.3125 0.3125 (   401 PWs)   bands (ev):

    -6.3927   0.1751   4.3247   4.3247

     occupation numbers 
     1.0000   1.0000   1.0000   1.0000

          k =-0.4375 0.4375 0.1875 (   400 PWs)   bands (ev):

    -5.8476  -0.4608   2.7967   4.2539

     occupation numbers 
     1.0000   1.0000   1.0000   1.0000

          k = 0.4375-0.4375 1.0625 (   403 PWs)   bands (ev):

    -4.8933  -1.1181   1.2041   3.6222

     occupation numbers 
     1.0000   1.0000   1.0000   1.0000

          k = 0.3125-0.3125 0.9375 (   400 PWs)   bands (ev):

    -3.9509  -1.9867   0.8440   3.0266

     occupation numbers 
     1.0000   1.0000   1.0000   1.0000

          k =-0.3125 0.5625 0.3125 (   401 PWs)   bands (ev):

    -5.4899  -1.0930   3.2046   3.6007

     occupation numbers 
     1.0000   1.0000   1.0000   1.0000

          k = 0.5625-0.3125 1.1875 (   403 PWs)   bands (ev):

    -4.7236  -1.5608   1.7992   3.1342

     occupation numbers 
     1.0000   1.0000   1.0000   1.0000

          k = 0.4375-0.1875 1.0625 (   398 PWs)   bands (ev):

    -3.7965  -2.0597   0.9367   2.3730

     occupation numbers 
     1.0000   1.0000   1.0000   1.0000

          k =-0.3125-1.1875 0.3125 (   400 PWs)   bands (ev):

    -4.2947  -1.8956   1.3813   3.1253

     occupation numbers 
     1.0000   1.0000   1.0000   1.0000

          k =-0.4375 0.4375 0.4375 (   401 PWs)   bands (ev):

    -5.3769  -1.6929   4.0677   4.0677

     occupation numbers 
     1.0000   1.0000   1.0000   1.0000

          k = 0.4375-0.4375 1.3125 (   399 PWs)   bands (ev):

    -4.9012  -1.9585   2.8262   3.7909

     occupation numbers 
     1.0000   1.0000   1.0000   1.0000

     highest occupied level (ev):     5.1852

!    total energy              =     -15.78168550 Ry
     Harris-Foulkes estimate   =     -15.78168550 Ry
     estimated scf accuracy    <          1.2E-11 Ry

     convergence has been achieved in   1 iterations

     Using ACE for calculation of exact exchange

!!   total energy              =     -15.78168550 Ry
     Harris-Foulkes estimate   =     -15.78168550 Ry
     est. exchange err (dexx)  =          9.6E-10 Ry
     - averaged Fock potential =       2.19647217 Ry
     + Fock energy (ACE)       =      -1.09823671 Ry

     EXX self-consistency reached

     Writing output data file Si.save/
 
     init_run     :      0.12s CPU      0.12s WALL (       1 calls)
     electrons    :      4.40s CPU      4.56s WALL (       7 calls)

     Called by init_run:
     wfcinit      :      0.09s CPU      0.09s WALL (       1 calls)
     wfcinit:atom :      0.00s CPU      0.00s WALL (      60 calls)
     wfcinit:wfcr :      0.09s CPU      0.09s WALL (      60 calls)
     potinit      :      0.00s CPU      0.00s WALL (       1 calls)
     hinit0       :      0.02s CPU      0.02s WALL (       1 calls)

     Called by electrons:
     c_bands      :      3.74s CPU      3.88s WALL (      29 calls)
     sum_band     :      0.57s CPU      0.59s WALL (      29 calls)
     v_of_rho     :      0.08s CPU      0.08s WALL (      29 calls)
     v_h          :      0.01s CPU      0.00s WALL (      29 calls)
     v_xc         :      0.07s CPU      0.08s WALL (      29 calls)
     mix_rho      :      0.00s CPU      0.00s WALL (      29 calls)

     Called by c_bands:
     init_us_2    :      0.10s CPU      0.12s WALL (    3540 calls)
     cegterg      :      3.58s CPU      3.73s WALL (    1740 calls)

     Called by sum_band:

     Called by *egterg:
     h_psi        :      3.26s CPU      3.34s WALL (    5939 calls)
     g_psi        :      0.04s CPU      0.02s WALL (    4139 calls)
     cdiaghg      :      0.22s CPU      0.22s WALL (    5399 calls)
     cegterg:over :      0.04s CPU      0.07s WALL (    4139 calls)
     cegterg:upda :      0.04s CPU      0.04s WALL (    4139 calls)
     cegterg:last :      0.01s CPU      0.02s WALL (    1936 calls)

     Called by h_psi:
     h_psi:pot    :      3.20s CPU      3.28s WALL (    5939 calls)
     h_psi:calbec :      0.06s CPU      0.07s WALL (    5939 calls)
     vloc_psi     :      3.10s CPU      3.16s WALL (    5939 calls)
     add_vuspsi   :      0.03s CPU      0.04s WALL (    5939 calls)

     General routines
     calbec       :      0.06s CPU      0.09s WALL (   11913 calls)
     fft          :      0.04s CPU      0.03s WALL (     283 calls)
     ffts         :      0.00s CPU      0.00s WALL (      29 calls)
     fftw         :      3.23s CPU      3.31s WALL (   50276 calls)
     fftc         :     11.31s CPU     11.55s WALL (  107520 calls)
     fftcw        :      0.31s CPU      0.36s WALL (    5040 calls)
 
     Parallel routines
     fft_scatt_xy :      1.64s CPU      1.73s WALL (  163148 calls)
     fft_scatt_yz :      2.56s CPU      2.70s WALL (  163148 calls)

     EXX routines
     exx_grid     :      0.07s CPU      0.07s WALL (       1 calls)
     exxinit      :      1.13s CPU      1.19s WALL (       7 calls)
     vexx         :     13.82s CPU     14.20s WALL (     420 calls)
     matcalc      :      0.04s CPU      0.04s WALL (    5974 calls)
     aceupdate    :      0.00s CPU      0.00s WALL (     420 calls)
     vexxace      :      0.06s CPU      0.06s WALL (    4774 calls)
     aceinit      :     13.83s CPU     14.21s WALL (     420 calls)
 
     PWSCF        :     19.66s CPU     20.27s WALL

 
   This run was terminated on:  10: 1:47   4Sep2019            

=------------------------------------------------------------------------------=
   JOB DONE.
=------------------------------------------------------------------------------=
