
     Program PROJWFC v.6.4.1 starts on  3Sep2019 at 17: 4: 1 

     This program is part of the open-source Quantum ESPRESSO suite
     for quantum simulation of materials; please cite
         "P. Giannozzi et al., J. Phys.:Condens. Matter 21 395502 (2009);
         "P. Giannozzi et al., J. Phys.:Condens. Matter 29 465901 (2017);
          URL http://www.quantum-espresso.org", 
     in publications or presentations arising from this work. More details at
     http://www.quantum-espresso.org/quote

     Parallel version (MPI), running on     2 processors

     MPI processes distributed on     1 nodes
     R & G space division:  proc/nbgrp/npool/nimage =       2

     Reading data from directory:
     ./tmp/FeO.save/
     Message from routine volume:
     axis vectors are left-handed
     Message from routine volume:
     axis vectors are left-handed
     Message from routine read_upf::
     Pseudo file Fe.pbesol-spn-kjpaw_psl.0.2.1.UPF has been fixed on the fly.
To avoid this message in the future, permanently fix 
 your pseudo files following these instructions: 
https://gitlab.com/QEF/q-e/blob/master/upftools/how_to_fix_upf.md
     Message from routine read_upf::
     Pseudo file Fe.pbesol-spn-kjpaw_psl.0.2.1.UPF has been fixed on the fly.
To avoid this message in the future, permanently fix 
 your pseudo files following these instructions: 
https://gitlab.com/QEF/q-e/blob/master/upftools/how_to_fix_upf.md
     Message from routine read_upf::
     Pseudo file O.pbesol-n-kjpaw_psl.0.1.UPF has been fixed on the fly.
To avoid this message in the future, permanently fix 
 your pseudo files following these instructions: 
https://gitlab.com/QEF/q-e/blob/master/upftools/how_to_fix_upf.md

     IMPORTANT: XC functional enforced from input :
     Exchange-correlation      = PBESOL ( 1  4 10  8 0 0)
     Any further DFT definition will be discarded
     Please, verify this is what you really want

               file Fe.pbesol-spn-kjpaw_psl.0.2.1.UPF: wavefunction(s)  3D renormalized
               file Fe.pbesol-spn-kjpaw_psl.0.2.1.UPF: wavefunction(s)  3D renormalized
               file O.pbesol-n-kjpaw_psl.0.1.UPF: wavefunction(s)  2P renormalized
 
     Parallelization info
     --------------------
     sticks:   dense  smooth     PW     G-vecs:    dense   smooth      PW
     Min         530     269     94                 8627     3055     636
     Max         531     270     95                 8628     3056     637
     Sum        1061     539    189                17255     6111    1273
 
     Generating pointlists ...
     new r_m :   0.2063 (alat units)  1.6892 (a.u.) for type    1
     new r_m :   0.2063 (alat units)  1.6892 (a.u.) for type    2
     new r_m :   0.2063 (alat units)  1.6892 (a.u.) for type    3

     Check: negative core charge=   -0.000246

     Gaussian broadening (read from input): ngauss,degauss=   0    0.005000


     Calling projwave .... 

     Atomic states used for projection
     (read from pseudopotential files):

     state #   1: atom   1 (Fe1), wfc  1 (l=0 m= 1)
     state #   2: atom   1 (Fe1), wfc  2 (l=0 m= 1)
     state #   3: atom   1 (Fe1), wfc  3 (l=1 m= 1)
     state #   4: atom   1 (Fe1), wfc  3 (l=1 m= 2)
     state #   5: atom   1 (Fe1), wfc  3 (l=1 m= 3)
     state #   6: atom   1 (Fe1), wfc  4 (l=1 m= 1)
     state #   7: atom   1 (Fe1), wfc  4 (l=1 m= 2)
     state #   8: atom   1 (Fe1), wfc  4 (l=1 m= 3)
     state #   9: atom   1 (Fe1), wfc  5 (l=2 m= 1)
     state #  10: atom   1 (Fe1), wfc  5 (l=2 m= 2)
     state #  11: atom   1 (Fe1), wfc  5 (l=2 m= 3)
     state #  12: atom   1 (Fe1), wfc  5 (l=2 m= 4)
     state #  13: atom   1 (Fe1), wfc  5 (l=2 m= 5)
     state #  14: atom   2 (Fe2), wfc  1 (l=0 m= 1)
     state #  15: atom   2 (Fe2), wfc  2 (l=0 m= 1)
     state #  16: atom   2 (Fe2), wfc  3 (l=1 m= 1)
     state #  17: atom   2 (Fe2), wfc  3 (l=1 m= 2)
     state #  18: atom   2 (Fe2), wfc  3 (l=1 m= 3)
     state #  19: atom   2 (Fe2), wfc  4 (l=1 m= 1)
     state #  20: atom   2 (Fe2), wfc  4 (l=1 m= 2)
     state #  21: atom   2 (Fe2), wfc  4 (l=1 m= 3)
     state #  22: atom   2 (Fe2), wfc  5 (l=2 m= 1)
     state #  23: atom   2 (Fe2), wfc  5 (l=2 m= 2)
     state #  24: atom   2 (Fe2), wfc  5 (l=2 m= 3)
     state #  25: atom   2 (Fe2), wfc  5 (l=2 m= 4)
     state #  26: atom   2 (Fe2), wfc  5 (l=2 m= 5)
     state #  27: atom   3 (O  ), wfc  1 (l=0 m= 1)
     state #  28: atom   3 (O  ), wfc  2 (l=1 m= 1)
     state #  29: atom   3 (O  ), wfc  2 (l=1 m= 2)
     state #  30: atom   3 (O  ), wfc  2 (l=1 m= 3)
     state #  31: atom   4 (O  ), wfc  1 (l=0 m= 1)
     state #  32: atom   4 (O  ), wfc  2 (l=1 m= 1)
     state #  33: atom   4 (O  ), wfc  2 (l=1 m= 2)
     state #  34: atom   4 (O  ), wfc  2 (l=1 m= 3)

 k =   0.0000000000  0.0000000000  0.0000000000
==== e(   1) =   -76.25307 eV ==== 
     psi = 0.979*[#   1]+0.011*[#  15]+0.003*[#   2]+
    |psi|^2 = 1.000
==== e(   2) =   -72.11258 eV ==== 
     psi = 0.979*[#  14]+0.011*[#   2]+0.003*[#  15]+
    |psi|^2 = 1.000
==== e(   3) =   -42.41535 eV ==== 
     psi = 0.327*[#   3]+0.327*[#   4]+0.327*[#   5]+0.005*[#   6]+0.005*[#   7]+
          +0.005*[#   8]+
    |psi|^2 = 0.999
==== e(   4) =   -42.41535 eV ==== 
     psi = 0.327*[#   3]+0.327*[#   4]+0.327*[#   5]+0.005*[#   6]+0.005*[#   7]+
          +0.005*[#   8]+
    |psi|^2 = 0.999
==== e(   5) =   -40.80137 eV ==== 
     psi = 0.326*[#   3]+0.326*[#   4]+0.326*[#   5]+0.006*[#  19]+0.006*[#  20]+
          +0.006*[#  21]+
    |psi|^2 = 0.998
==== e(   6) =   -38.10487 eV ==== 
     psi = 0.328*[#  16]+0.328*[#  17]+0.328*[#  18]+0.004*[#  19]+0.004*[#  20]+
          +0.004*[#  21]+
    |psi|^2 = 0.999
==== e(   7) =   -38.10487 eV ==== 
     psi = 0.328*[#  16]+0.328*[#  17]+0.328*[#  18]+0.004*[#  19]+0.004*[#  20]+
          +0.004*[#  21]+
    |psi|^2 = 0.999
==== e(   8) =   -37.39321 eV ==== 
     psi = 0.326*[#  16]+0.326*[#  17]+0.326*[#  18]+0.006*[#   6]+0.006*[#   7]+
          +0.006*[#   8]+
    |psi|^2 = 0.998
==== e(   9) =    -5.96080 eV ==== 
     psi = 0.312*[#  27]+0.312*[#  31]+0.187*[#   2]+0.178*[#  15]+0.006*[#  14]+
          +0.005*[#   1]+
    |psi|^2 = 1.000
==== e(  10) =    -4.70798 eV ==== 
     psi = 0.387*[#  27]+0.387*[#  31]+0.036*[#   6]+0.036*[#   7]+0.036*[#   8]+
          +0.036*[#  19]+0.036*[#  20]+0.036*[#  21]+0.001*[#  16]+0.001*[#  17]+
          +0.001*[#  18]+0.001*[#   3]+0.001*[#   4]+0.001*[#   5]+
    |psi|^2 = 0.999
==== e(  11) =     4.78256 eV ==== 
     psi = 0.097*[#   2]+0.088*[#  15]+0.077*[#  10]+0.077*[#  11]+0.077*[#  13]+
          +0.076*[#  28]+0.076*[#  29]+0.076*[#  30]+0.076*[#  32]+0.076*[#  33]+
          +0.076*[#  34]+0.040*[#  23]+0.040*[#  24]+0.040*[#  26]+0.003*[#   1]+
          +0.002*[#  14]+
    |psi|^2 = 0.999
==== e(  12) =     5.88311 eV ==== 
     psi = 0.252*[#   9]+0.252*[#  12]+0.107*[#  10]+0.107*[#  11]+0.107*[#  13]+
          +0.027*[#  28]+0.027*[#  29]+0.027*[#  30]+0.027*[#  32]+0.027*[#  33]+
          +0.027*[#  34]+0.004*[#  22]+0.004*[#  25]+
    |psi|^2 = 1.000
==== e(  13) =     5.88313 eV ==== 
     psi = 0.252*[#   9]+0.252*[#  12]+0.107*[#  10]+0.107*[#  11]+0.107*[#  13]+
          +0.027*[#  28]+0.027*[#  29]+0.027*[#  30]+0.027*[#  32]+0.027*[#  33]+
          +0.027*[#  34]+0.004*[#  22]+0.004*[#  25]+
    |psi|^2 = 1.000
==== e(  14) =     7.28923 eV ==== 
     psi = 0.223*[#  10]+0.223*[#  11]+0.223*[#  13]+0.147*[#   9]+0.147*[#  12]+
          +0.006*[#  28]+0.006*[#  29]+0.006*[#  30]+0.006*[#  32]+0.006*[#  33]+
          +0.006*[#  34]+0.001*[#  23]+0.001*[#  24]+0.001*[#  26]+
    |psi|^2 = 1.000
==== e(  15) =     7.28925 eV ==== 
     psi = 0.223*[#  10]+0.223*[#  11]+0.223*[#  13]+0.147*[#   9]+0.147*[#  12]+
          +0.006*[#  28]+0.006*[#  29]+0.006*[#  30]+0.006*[#  32]+0.006*[#  33]+
          +0.006*[#  34]+0.001*[#  23]+0.001*[#  24]+0.001*[#  26]+
    |psi|^2 = 1.000
==== e(  16) =     8.97179 eV ==== 
     psi = 0.210*[#  10]+0.210*[#  11]+0.210*[#  13]+0.103*[#  23]+0.103*[#  24]+
          +0.103*[#  26]+0.007*[#  28]+0.007*[#  29]+0.007*[#  30]+0.007*[#  32]+
          +0.007*[#  33]+0.007*[#  34]+0.007*[#   2]+0.006*[#  15]+
    |psi|^2 = 0.997
==== e(  17) =    11.12167 eV ==== 
     psi = 0.163*[#  28]+0.163*[#  29]+0.163*[#  30]+0.163*[#  32]+0.163*[#  33]+
          +0.163*[#  34]+0.002*[#   6]+0.002*[#   7]+0.002*[#   8]+0.002*[#  19]+
          +0.002*[#  20]+0.002*[#  21]+
    |psi|^2 = 0.995
==== e(  18) =    11.17236 eV ==== 
     psi = 0.163*[#  28]+0.163*[#  29]+0.163*[#  30]+0.163*[#  32]+0.163*[#  33]+
          +0.163*[#  34]+0.002*[#   6]+0.002*[#   7]+0.002*[#   8]+0.002*[#  19]+
          +0.002*[#  20]+0.002*[#  21]+
    |psi|^2 = 0.995
==== e(  19) =    11.17236 eV ==== 
     psi = 0.163*[#  28]+0.163*[#  29]+0.163*[#  30]+0.163*[#  32]+0.163*[#  33]+
          +0.163*[#  34]+0.002*[#   6]+0.002*[#   7]+0.002*[#   8]+0.002*[#  19]+
          +0.002*[#  20]+0.002*[#  21]+
    |psi|^2 = 0.995
==== e(  20) =    11.22275 eV ==== 
     psi = 0.097*[#  28]+0.097*[#  29]+0.097*[#  30]+0.097*[#  32]+0.097*[#  33]+
          +0.097*[#  34]+0.095*[#  22]+0.095*[#  25]+0.093*[#   9]+0.093*[#  12]+
          +0.010*[#  23]+0.010*[#  24]+0.010*[#  26]+0.002*[#  10]+0.002*[#  11]+
          +0.002*[#  13]+
    |psi|^2 = 0.993
==== e(  21) =    11.22276 eV ==== 
     psi = 0.097*[#  28]+0.097*[#  29]+0.097*[#  30]+0.097*[#  32]+0.097*[#  33]+
          +0.097*[#  34]+0.095*[#  22]+0.095*[#  25]+0.093*[#   9]+0.093*[#  12]+
          +0.010*[#  23]+0.010*[#  24]+0.010*[#  26]+0.002*[#  10]+0.002*[#  11]+
          +0.002*[#  13]+
    |psi|^2 = 0.993
==== e(  22) =    11.59651 eV ==== 
     psi = 0.188*[#  23]+0.188*[#  24]+0.188*[#  26]+0.045*[#  10]+0.045*[#  11]+
          +0.045*[#  13]+0.041*[#  28]+0.041*[#  29]+0.041*[#  30]+0.041*[#  32]+
          +0.041*[#  33]+0.041*[#  34]+0.030*[#   2]+0.022*[#  15]+
    |psi|^2 = 0.999
==== e(  23) =    14.85239 eV ==== 
     psi = 0.321*[#   2]+0.283*[#  15]+0.186*[#  27]+0.186*[#  31]+0.009*[#  14]+
          +0.007*[#   1]+
    |psi|^2 = 0.994
==== e(  24) =    15.71360 eV ==== 
     psi = 0.248*[#  23]+0.248*[#  24]+0.248*[#  26]+0.061*[#  22]+0.061*[#  25]+
          +0.020*[#  28]+0.020*[#  29]+0.020*[#  30]+0.020*[#  32]+0.020*[#  33]+
          +0.020*[#  34]+0.003*[#   9]+0.003*[#  12]+
    |psi|^2 = 0.994
==== e(  25) =    15.71360 eV ==== 
     psi = 0.248*[#  23]+0.248*[#  24]+0.248*[#  26]+0.061*[#  22]+0.061*[#  25]+
          +0.020*[#  28]+0.020*[#  29]+0.020*[#  30]+0.020*[#  32]+0.020*[#  33]+
          +0.020*[#  34]+0.003*[#   9]+0.003*[#  12]+
    |psi|^2 = 0.994
==== e(  26) =    16.86305 eV ==== 
     psi = 0.338*[#  22]+0.338*[#  25]+0.071*[#  23]+0.071*[#  24]+0.071*[#  26]+
          +0.016*[#  28]+0.016*[#  29]+0.016*[#  30]+0.016*[#  32]+0.016*[#  33]+
          +0.016*[#  34]+0.005*[#   9]+0.005*[#  12]+
    |psi|^2 = 0.993
==== e(  27) =    16.86305 eV ==== 
     psi = 0.338*[#  22]+0.338*[#  25]+0.071*[#  23]+0.071*[#  24]+0.071*[#  26]+
          +0.016*[#  28]+0.016*[#  29]+0.016*[#  30]+0.016*[#  32]+0.016*[#  33]+
          +0.016*[#  34]+0.005*[#   9]+0.005*[#  12]+
    |psi|^2 = 0.993
==== e(  28) =    19.47253 eV ==== 
     psi = 0.121*[#   6]+0.121*[#   7]+0.121*[#   8]+0.114*[#  19]+0.114*[#  20]+
          +0.114*[#  21]+0.100*[#  27]+0.100*[#  31]+0.002*[#  16]+0.002*[#  17]+
          +0.002*[#  18]+0.001*[#   3]+0.001*[#   4]+0.001*[#   5]+
    |psi|^2 = 0.913
==== e(  29) =    23.31273 eV ==== 
     psi = 0.391*[#  15]+0.328*[#   2]+0.039*[#  28]+0.039*[#  29]+0.039*[#  30]+
          +0.039*[#  32]+0.039*[#  33]+0.039*[#  34]+0.005*[#   1]+0.004*[#  14]+
    |psi|^2 = 0.965
==== e(  30) =    29.00055 eV ==== 
     psi = 0.130*[#   6]+0.130*[#   7]+0.130*[#   8]+0.109*[#  19]+0.109*[#  20]+
          +0.109*[#  21]+0.002*[#   3]+0.002*[#   4]+0.002*[#   5]+
    |psi|^2 = 0.726
==== e(  31) =    29.00055 eV ==== 
     psi = 0.130*[#   6]+0.130*[#   7]+0.130*[#   8]+0.109*[#  19]+0.109*[#  20]+
          +0.109*[#  21]+0.002*[#   3]+0.002*[#   4]+0.002*[#   5]+
    |psi|^2 = 0.726
==== e(  32) =    29.34657 eV ==== 
     psi = 
    |psi|^2 = 0.000
==== e(  33) =    31.03779 eV ==== 
     psi = 0.002*[#  23]+0.002*[#  24]+0.002*[#  26]+
    |psi|^2 = 0.006
==== e(  34) =    31.03780 eV ==== 
     psi = 0.002*[#  23]+0.002*[#  24]+0.002*[#  26]+
    |psi|^2 = 0.006
==== e(  35) =    31.18164 eV ==== 
     psi = 
    |psi|^2 = 0.004

 k =   0.2500000000 -0.0833333333 -0.0833333333
==== e(   1) =   -76.25761 eV ==== 
     psi = 0.946*[#   1]+0.010*[#   6]+0.010*[#   7]+0.010*[#   8]+0.005*[#  19]+
          +0.005*[#  20]+0.005*[#  21]+0.001*[#   2]+0.001*[#  15]+
    |psi|^2 = 1.000
==== e(   2) =   -72.11686 eV ==== 
     psi = 0.946*[#  14]+0.010*[#  19]+0.010*[#  20]+0.010*[#  21]+0.005*[#   6]+
          +0.005*[#   7]+0.005*[#   8]+0.001*[#   2]+0.001*[#  15]+
    |psi|^2 = 1.000
==== e(   3) =   -42.45577 eV ==== 
     psi = 0.330*[#   3]+0.330*[#   4]+0.330*[#   5]+0.002*[#   2]+
    |psi|^2 = 0.998
==== e(   4) =   -42.44041 eV ==== 
     psi = 0.328*[#   3]+0.328*[#   4]+0.328*[#   5]+0.004*[#   6]+0.004*[#   7]+
          +0.004*[#   8]+
    |psi|^2 = 0.999
==== e(   5) =   -40.82132 eV ==== 
     psi = 0.328*[#   3]+0.328*[#   4]+0.328*[#   5]+0.004*[#  19]+0.004*[#  20]+
          +0.004*[#  21]+
    |psi|^2 = 0.998
==== e(   6) =   -38.14807 eV ==== 
     psi = 0.330*[#  16]+0.330*[#  17]+0.330*[#  18]+0.002*[#  15]+
    |psi|^2 = 0.998
==== e(   7) =   -38.13040 eV ==== 
     psi = 0.329*[#  16]+0.329*[#  17]+0.329*[#  18]+0.003*[#  19]+0.003*[#  20]+
          +0.003*[#  21]+
    |psi|^2 = 0.998
==== e(   8) =   -37.41860 eV ==== 
     psi = 0.328*[#  16]+0.328*[#  17]+0.328*[#  18]+0.004*[#   6]+0.004*[#   7]+
          +0.004*[#   8]+
    |psi|^2 = 0.998
==== e(   9) =    -5.72184 eV ==== 
     psi = 0.303*[#  27]+0.303*[#  31]+0.088*[#   2]+0.082*[#  15]+0.034*[#   6]+
          +0.034*[#   7]+0.034*[#   8]+0.034*[#  19]+0.034*[#  20]+0.034*[#  21]+
          +0.008*[#  14]+0.008*[#   1]+
    |psi|^2 = 1.000
==== e(  10) =    -4.75835 eV ==== 
     psi = 0.400*[#  27]+0.400*[#  31]+0.029*[#   6]+0.029*[#   7]+0.029*[#   8]+
          +0.028*[#  19]+0.028*[#  20]+0.028*[#  21]+0.009*[#   9]+0.009*[#  12]+
          +0.003*[#  22]+0.003*[#  25]+
    |psi|^2 = 0.999
==== e(  11) =     5.31818 eV ==== 
     psi = 0.087*[#  10]+0.087*[#  11]+0.087*[#  13]+0.068*[#  28]+0.068*[#  29]+
          +0.068*[#  30]+0.068*[#  32]+0.068*[#  33]+0.068*[#  34]+0.063*[#   2]+
          +0.059*[#  15]+0.035*[#   9]+0.035*[#  12]+0.030*[#  23]+0.030*[#  24]+
          +0.030*[#  26]+0.008*[#  19]+0.008*[#  20]+0.008*[#  21]+0.006*[#   6]+
          +0.006*[#   7]+0.006*[#   8]+0.002*[#   1]+0.002*[#  14]+
    |psi|^2 = 0.999
==== e(  12) =     5.92211 eV ==== 
     psi = 0.156*[#   9]+0.156*[#  12]+0.135*[#  10]+0.135*[#  11]+0.135*[#  13]+
          +0.034*[#  28]+0.034*[#  29]+0.034*[#  30]+0.034*[#  32]+0.034*[#  33]+
          +0.034*[#  34]+0.008*[#   2]+0.008*[#  23]+0.008*[#  24]+0.008*[#  26]+
          +0.006*[#  15]+0.006*[#   6]+0.006*[#   7]+0.006*[#   8]+0.005*[#  19]+
          +0.005*[#  20]+0.005*[#  21]+0.001*[#  27]+0.001*[#  31]+
    |psi|^2 = 1.000
==== e(  13) =     6.13368 eV ==== 
     psi = 0.293*[#   9]+0.293*[#  12]+0.076*[#  10]+0.076*[#  11]+0.076*[#  13]+
          +0.029*[#  28]+0.029*[#  29]+0.029*[#  30]+0.029*[#  32]+0.029*[#  33]+
          +0.029*[#  34]+0.004*[#  22]+0.004*[#  25]+0.001*[#   6]+0.001*[#   7]+
          +0.001*[#   8]+
    |psi|^2 = 1.000
==== e(  14) =     7.05485 eV ==== 
     psi = 0.185*[#   9]+0.185*[#  12]+0.164*[#  10]+0.164*[#  11]+0.164*[#  13]+
          +0.018*[#  28]+0.018*[#  29]+0.018*[#  30]+0.018*[#  32]+0.018*[#  33]+
          +0.018*[#  34]+0.005*[#  27]+0.005*[#  31]+0.005*[#   2]+0.004*[#  15]+
          +0.001*[#  23]+0.001*[#  24]+0.001*[#  26]+
    |psi|^2 = 0.999
==== e(  15) =     7.13958 eV ==== 
     psi = 0.245*[#  10]+0.245*[#  11]+0.245*[#  13]+0.100*[#   9]+0.100*[#  12]+
          +0.009*[#  28]+0.009*[#  29]+0.009*[#  30]+0.009*[#  32]+0.009*[#  33]+
          +0.009*[#  34]+0.001*[#  19]+0.001*[#  20]+0.001*[#  21]+
    |psi|^2 = 1.000
==== e(  16) =     8.87610 eV ==== 
     psi = 0.176*[#  10]+0.176*[#  11]+0.176*[#  13]+0.077*[#  23]+0.077*[#  24]+
          +0.077*[#  26]+0.031*[#   2]+0.030*[#  28]+0.030*[#  29]+0.030*[#  30]+
          +0.030*[#  32]+0.030*[#  33]+0.030*[#  34]+0.005*[#  27]+0.005*[#  31]+
          +0.004*[#  22]+0.004*[#  25]+0.002*[#   9]+0.002*[#  12]+
    |psi|^2 = 0.997
==== e(  17) =     9.80964 eV ==== 
     psi = 0.111*[#  28]+0.111*[#  29]+0.111*[#  30]+0.111*[#  32]+0.111*[#  33]+
          +0.111*[#  34]+0.051*[#  22]+0.051*[#  25]+0.028*[#  10]+0.028*[#  11]+
          +0.028*[#  13]+0.022*[#  23]+0.022*[#  24]+0.022*[#  26]+0.011*[#   2]+
          +0.008*[#  19]+0.008*[#  20]+0.008*[#  21]+0.008*[#  27]+0.008*[#  31]+
          +0.005*[#  15]+0.005*[#   6]+0.005*[#   7]+0.005*[#   8]+0.003*[#   9]+
          +0.003*[#  12]+
    |psi|^2 = 0.996
==== e(  18) =    10.45805 eV ==== 
     psi = 0.113*[#  28]+0.113*[#  29]+0.113*[#  30]+0.113*[#  32]+0.113*[#  33]+
          +0.113*[#  34]+0.053*[#  15]+0.035*[#  10]+0.035*[#  11]+0.035*[#  13]+
          +0.026*[#   9]+0.026*[#  12]+0.022*[#  27]+0.022*[#  31]+0.013*[#   2]+
          +0.007*[#  23]+0.007*[#  24]+0.007*[#  26]+0.006*[#   6]+0.006*[#   7]+
          +0.006*[#   8]+0.003*[#  22]+0.003*[#  25]+0.002*[#  14]+0.001*[#   1]+
    |psi|^2 = 0.996
==== e(  19) =    10.77030 eV ==== 
     psi = 0.134*[#  28]+0.134*[#  29]+0.134*[#  30]+0.134*[#  32]+0.134*[#  33]+
          +0.134*[#  34]+0.053*[#  22]+0.053*[#  25]+0.020*[#   9]+0.020*[#  12]+
          +0.010*[#  10]+0.010*[#  11]+0.010*[#  13]+0.005*[#   6]+0.005*[#   7]+
          +0.005*[#   8]+
    |psi|^2 = 0.996
==== e(  20) =    11.51332 eV ==== 
     psi = 0.120*[#  28]+0.120*[#  29]+0.120*[#  30]+0.120*[#  32]+0.120*[#  33]+
          +0.120*[#  34]+0.080*[#   9]+0.080*[#  12]+0.033*[#  22]+0.033*[#  25]+
          +0.009*[#  23]+0.009*[#  24]+0.009*[#  26]+0.006*[#  19]+0.006*[#  20]+
          +0.006*[#  21]+
    |psi|^2 = 0.995
==== e(  21) =    11.52233 eV ==== 
     psi = 0.185*[#  23]+0.185*[#  24]+0.185*[#  26]+0.050*[#  28]+0.050*[#  29]+
          +0.050*[#  30]+0.050*[#  32]+0.050*[#  33]+0.050*[#  34]+0.029*[#  10]+
          +0.029*[#  11]+0.029*[#  13]+0.024*[#   2]+0.018*[#  15]+0.005*[#   9]+
          +0.005*[#  12]+
    |psi|^2 = 0.998
==== e(  22) =    11.67818 eV ==== 
     psi = 0.120*[#  28]+0.120*[#  29]+0.120*[#  30]+0.120*[#  32]+0.120*[#  33]+
          +0.120*[#  34]+0.073*[#   9]+0.073*[#  12]+0.014*[#  23]+0.014*[#  24]+
          +0.014*[#  26]+0.010*[#  27]+0.010*[#  31]+0.008*[#  10]+0.008*[#  11]+
          +0.008*[#  13]+0.005*[#   2]+0.005*[#   6]+0.005*[#   7]+0.005*[#   8]+
          +0.005*[#  19]+0.005*[#  20]+0.005*[#  21]+0.003*[#  15]+0.001*[#  22]+
          +0.001*[#  25]+
    |psi|^2 = 0.993
==== e(  23) =    15.59263 eV ==== 
     psi = 0.205*[#  23]+0.205*[#  24]+0.205*[#  26]+0.117*[#  22]+0.117*[#  25]+
          +0.018*[#  28]+0.018*[#  29]+0.018*[#  30]+0.018*[#  32]+0.018*[#  33]+
          +0.018*[#  34]+0.012*[#   2]+0.006*[#  27]+0.006*[#  31]+0.002*[#  15]+
          +0.001*[#   9]+0.001*[#  12]+0.001*[#  19]+0.001*[#  20]+0.001*[#  21]+
    |psi|^2 = 0.995
==== e(  24) =    15.71649 eV ==== 
     psi = 0.226*[#  23]+0.226*[#  24]+0.226*[#  26]+0.100*[#  22]+0.100*[#  25]+
          +0.018*[#  28]+0.018*[#  29]+0.018*[#  30]+0.018*[#  32]+0.018*[#  33]+
          +0.018*[#  34]+0.004*[#   9]+0.004*[#  12]+0.002*[#   6]+0.002*[#   7]+
          +0.002*[#   8]+
    |psi|^2 = 0.996
==== e(  25) =    16.10353 eV ==== 
     psi = 0.116*[#   2]+0.101*[#  27]+0.101*[#  31]+0.096*[#  22]+0.096*[#  25]+
          +0.072*[#  15]+0.065*[#  23]+0.065*[#  24]+0.065*[#  26]+0.023*[#  19]+
          +0.023*[#  20]+0.023*[#  21]+0.019*[#   6]+0.019*[#   7]+0.019*[#   8]+
          +0.012*[#  28]+0.012*[#  29]+0.012*[#  30]+0.012*[#  32]+0.012*[#  33]+
          +0.012*[#  34]+0.006*[#  14]+0.005*[#   1]+0.001*[#   9]+0.001*[#  12]+
    |psi|^2 = 0.991
==== e(  26) =    16.96177 eV ==== 
     psi = 0.309*[#  22]+0.309*[#  25]+0.095*[#  23]+0.095*[#  24]+0.095*[#  26]+
          +0.014*[#  28]+0.014*[#  29]+0.014*[#  30]+0.014*[#  32]+0.014*[#  33]+
          +0.014*[#  34]+0.003*[#   9]+0.003*[#  12]+
    |psi|^2 = 0.995
==== e(  27) =    16.97062 eV ==== 
     psi = 0.211*[#  22]+0.211*[#  25]+0.054*[#  15]+0.053*[#  27]+0.053*[#  31]+
          +0.044*[#   2]+0.039*[#  23]+0.039*[#  24]+0.039*[#  26]+0.026*[#  28]+
          +0.026*[#  29]+0.026*[#  30]+0.026*[#  32]+0.026*[#  33]+0.026*[#  34]+
          +0.020*[#   6]+0.020*[#   7]+0.020*[#   8]+0.009*[#  19]+0.009*[#  20]+
          +0.009*[#  21]+0.003*[#  14]+0.002*[#   1]+
    |psi|^2 = 0.993
==== e(  28) =    20.92810 eV ==== 
     psi = 0.111*[#  19]+0.111*[#  20]+0.111*[#  21]+0.108*[#   6]+0.108*[#   7]+
          +0.108*[#   8]+0.063*[#  27]+0.063*[#  31]+0.014*[#  28]+0.014*[#  29]+
          +0.014*[#  30]+0.014*[#  32]+0.014*[#  33]+0.014*[#  34]+0.009*[#  22]+
          +0.009*[#  25]+0.005*[#  23]+0.005*[#  24]+0.005*[#  26]+0.002*[#   2]+
          +0.002*[#  15]+0.001*[#   9]+0.001*[#  12]+
    |psi|^2 = 0.913
==== e(  29) =    23.20057 eV ==== 
     psi = 0.346*[#  15]+0.306*[#   2]+0.036*[#  28]+0.036*[#  29]+0.036*[#  30]+
          +0.036*[#  32]+0.036*[#  33]+0.036*[#  34]+0.016*[#  19]+0.016*[#  20]+
          +0.016*[#  21]+0.010*[#   6]+0.010*[#   7]+0.010*[#   8]+0.005*[#   1]+
          +0.003*[#  14]+
    |psi|^2 = 0.965
==== e(  30) =    26.52893 eV ==== 
     psi = 0.132*[#   6]+0.132*[#   7]+0.132*[#   8]+0.093*[#  19]+0.093*[#  20]+
          +0.093*[#  21]+0.070*[#   2]+0.037*[#  15]+0.004*[#  28]+0.004*[#  29]+
          +0.004*[#  30]+0.004*[#  32]+0.004*[#  33]+0.004*[#  34]+0.004*[#   1]+
          +0.002*[#  27]+0.002*[#  31]+0.001*[#   3]+0.001*[#   4]+0.001*[#   5]+
    |psi|^2 = 0.823
==== e(  31) =    27.18446 eV ==== 
     psi = 0.032*[#  19]+0.032*[#  20]+0.032*[#  21]+0.024*[#  15]+0.023*[#   6]+
          +0.023*[#   7]+0.023*[#   8]+0.008*[#   2]+0.004*[#  23]+0.004*[#  24]+
          +0.004*[#  26]+0.002*[#  14]+0.001*[#   1]+
    |psi|^2 = 0.222
==== e(  32) =    29.75708 eV ==== 
     psi = 0.159*[#   6]+0.159*[#   7]+0.159*[#   8]+0.084*[#  19]+0.084*[#  20]+
          +0.084*[#  21]+0.003*[#  28]+0.003*[#  29]+0.003*[#  30]+0.003*[#  32]+
          +0.003*[#  33]+0.003*[#  34]+0.002*[#   3]+0.002*[#   4]+0.002*[#   5]+
    |psi|^2 = 0.755
==== e(  33) =    30.68571 eV ==== 
     psi = 0.089*[#  19]+0.089*[#  20]+0.089*[#  21]+0.038*[#   6]+0.038*[#   7]+
          +0.038*[#   8]+0.002*[#  23]+0.002*[#  24]+0.002*[#  26]+0.002*[#  16]+
          +0.002*[#  17]+0.002*[#  18]+0.001*[#  28]+0.001*[#  29]+0.001*[#  30]+
          +0.001*[#  32]+0.001*[#  33]+0.001*[#  34]+0.001*[#   3]+0.001*[#   4]+
          +0.001*[#   5]+
    |psi|^2 = 0.407
==== e(  34) =    30.87591 eV ==== 
     psi = 0.058*[#  15]+0.050*[#   2]+0.029*[#  19]+0.029*[#  20]+0.029*[#  21]+
          +0.020*[#   6]+0.020*[#   7]+0.020*[#   8]+0.006*[#  14]+0.005*[#   1]+
          +0.001*[#  23]+0.001*[#  24]+0.001*[#  26]+0.001*[#  27]+0.001*[#  31]+
    |psi|^2 = 0.281
==== e(  35) =    33.80618 eV ==== 
     psi = 0.049*[#  15]+0.040*[#   2]+0.028*[#  19]+0.028*[#  20]+0.028*[#  21]+
          +0.027*[#   6]+0.027*[#   7]+0.027*[#   8]+0.006*[#   1]+0.005*[#  14]+
          +0.001*[#  27]+0.001*[#  31]+
    |psi|^2 = 0.274

 k =   0.5000000000 -0.1666666667 -0.1666666667
==== e(   1) =   -76.25509 eV ==== 
     psi = 0.952*[#   1]+0.008*[#   2]+0.007*[#   6]+0.007*[#   7]+0.007*[#   8]+
          +0.005*[#  19]+0.005*[#  20]+0.005*[#  21]+
    |psi|^2 = 1.000
==== e(   2) =   -72.11157 eV ==== 
     psi = 0.952*[#  14]+0.007*[#  19]+0.007*[#  20]+0.007*[#  21]+0.007*[#  15]+
          +0.005*[#   6]+0.005*[#   7]+0.005*[#   8]+
    |psi|^2 = 1.000
==== e(   3) =   -42.49808 eV ==== 
     psi = 0.329*[#   3]+0.329*[#   4]+0.329*[#   5]+
    |psi|^2 = 0.998
==== e(   4) =   -42.44466 eV ==== 
     psi = 0.330*[#   3]+0.330*[#   4]+0.330*[#   5]+0.002*[#   6]+0.002*[#   7]+
          +0.002*[#   8]+
    |psi|^2 = 0.998
==== e(   5) =   -40.81863 eV ==== 
     psi = 0.330*[#   3]+0.330*[#   4]+0.330*[#   5]+
    |psi|^2 = 0.998
==== e(   6) =   -38.19526 eV ==== 
     psi = 0.329*[#  16]+0.329*[#  17]+0.329*[#  18]+
    |psi|^2 = 0.998
==== e(   7) =   -38.13700 eV ==== 
     psi = 0.330*[#  16]+0.330*[#  17]+0.330*[#  18]+0.002*[#  19]+0.002*[#  20]+
          +0.002*[#  21]+
    |psi|^2 = 0.998
==== e(   8) =   -37.41980 eV ==== 
     psi = 0.330*[#  16]+0.330*[#  17]+0.330*[#  18]+
    |psi|^2 = 0.998
==== e(   9) =    -5.27955 eV ==== 
     psi = 0.348*[#  27]+0.348*[#  31]+0.043*[#  19]+0.043*[#  20]+0.043*[#  21]+
          +0.027*[#   2]+0.027*[#   6]+0.027*[#   7]+0.027*[#   8]+0.023*[#  15]+
          +0.015*[#   9]+0.015*[#  12]+0.004*[#  14]+0.004*[#   1]+
    |psi|^2 = 1.000
==== e(  10) =    -4.76167 eV ==== 
     psi = 0.414*[#  27]+0.414*[#  31]+0.028*[#   6]+0.028*[#   7]+0.028*[#   8]+
          +0.013*[#   9]+0.013*[#  12]+0.011*[#  19]+0.011*[#  20]+0.011*[#  21]+
          +0.009*[#  22]+0.009*[#  25]+0.004*[#  15]+0.003*[#   2]+
    |psi|^2 = 0.999
==== e(  11) =     5.38976 eV ==== 
     psi = 0.203*[#  10]+0.203*[#  11]+0.203*[#  13]+0.058*[#   9]+0.058*[#  12]+
          +0.033*[#  28]+0.033*[#  29]+0.033*[#  30]+0.033*[#  32]+0.033*[#  33]+
          +0.033*[#  34]+0.024*[#   2]+0.010*[#  19]+0.010*[#  20]+0.010*[#  21]+
          +0.006*[#  15]+0.003*[#  27]+0.003*[#  31]+0.002*[#   6]+0.002*[#   7]+
          +0.002*[#   8]+0.001*[#  23]+0.001*[#  24]+0.001*[#  26]+
    |psi|^2 = 1.000
==== e(  12) =     6.22474 eV ==== 
     psi = 0.178*[#   9]+0.178*[#  12]+0.067*[#  10]+0.067*[#  11]+0.067*[#  13]+
          +0.053*[#  28]+0.053*[#  29]+0.053*[#  30]+0.053*[#  32]+0.053*[#  33]+
          +0.053*[#  34]+0.026*[#  15]+0.016*[#  19]+0.016*[#  20]+0.016*[#  21]+
          +0.009*[#  27]+0.009*[#  31]+0.008*[#   2]+0.004*[#  22]+0.004*[#  25]+
          +0.003*[#  14]+0.002*[#   6]+0.002*[#   7]+0.002*[#   8]+
    |psi|^2 = 0.999
==== e(  13) =     6.43911 eV ==== 
     psi = 0.383*[#   9]+0.383*[#  12]+0.036*[#  28]+0.036*[#  29]+0.036*[#  30]+
          +0.036*[#  32]+0.036*[#  33]+0.036*[#  34]+0.003*[#  19]+0.003*[#  20]+
          +0.003*[#  21]+0.002*[#  10]+0.002*[#  11]+0.002*[#  13]+0.001*[#  22]+
          +0.001*[#  25]+
    |psi|^2 = 1.000
==== e(  14) =     7.15154 eV ==== 
     psi = 0.074*[#  28]+0.074*[#  29]+0.074*[#  30]+0.074*[#  32]+0.074*[#  33]+
          +0.074*[#  34]+0.065*[#  10]+0.065*[#  11]+0.065*[#  13]+0.042*[#  23]+
          +0.042*[#  24]+0.042*[#  26]+0.036*[#   9]+0.036*[#  12]+0.028*[#   6]+
          +0.028*[#   7]+0.028*[#   8]+0.022*[#   2]+0.007*[#  19]+0.007*[#  20]+
          +0.007*[#  21]+0.007*[#  22]+0.007*[#  25]+0.005*[#  27]+0.005*[#  31]+
          +0.002*[#  15]+0.001*[#   1]+
    |psi|^2 = 0.998
==== e(  15) =     7.16097 eV ==== 
     psi = 0.314*[#  10]+0.314*[#  11]+0.314*[#  13]+0.006*[#  28]+0.006*[#  29]+
          +0.006*[#  30]+0.006*[#  32]+0.006*[#  33]+0.006*[#  34]+0.005*[#   9]+
          +0.005*[#  12]+0.001*[#   6]+0.001*[#   7]+0.001*[#   8]+0.001*[#  22]+
          +0.001*[#  25]+
    |psi|^2 = 1.000
==== e(  16) =     8.54278 eV ==== 
     psi = 0.146*[#  10]+0.146*[#  11]+0.146*[#  13]+0.060*[#   9]+0.060*[#  12]+
          +0.042*[#   2]+0.041*[#  28]+0.041*[#  29]+0.041*[#  30]+0.041*[#  32]+
          +0.041*[#  33]+0.041*[#  34]+0.027*[#  23]+0.027*[#  24]+0.027*[#  26]+
          +0.017*[#  27]+0.017*[#  31]+0.004*[#  19]+0.004*[#  20]+0.004*[#  21]+
          +0.004*[#  22]+0.004*[#  25]+0.003*[#   6]+0.003*[#   7]+0.003*[#   8]+
          +0.003*[#  15]+0.001*[#   1]+
    |psi|^2 = 0.997
==== e(  17) =     8.73973 eV ==== 
     psi = 0.115*[#  28]+0.115*[#  29]+0.115*[#  30]+0.115*[#  32]+0.115*[#  33]+
          +0.115*[#  34]+0.057*[#  15]+0.026*[#   9]+0.026*[#  12]+0.019*[#   6]+
          +0.019*[#   7]+0.019*[#   8]+0.015*[#  23]+0.015*[#  24]+0.015*[#  26]+
          +0.013*[#  22]+0.013*[#  25]+0.011*[#  10]+0.011*[#  11]+0.011*[#  13]+
          +0.007*[#   2]+0.006*[#  27]+0.006*[#  31]+0.005*[#  19]+0.005*[#  20]+
          +0.005*[#  21]+
    |psi|^2 = 0.997
==== e(  18) =    10.19211 eV ==== 
     psi = 0.145*[#  10]+0.145*[#  11]+0.145*[#  13]+0.055*[#  28]+0.055*[#  29]+
          +0.055*[#  30]+0.055*[#  32]+0.055*[#  33]+0.055*[#  34]+0.039*[#  23]+
          +0.039*[#  24]+0.039*[#  26]+0.020*[#  15]+0.016*[#   2]+0.012*[#  19]+
          +0.012*[#  20]+0.012*[#  21]+0.011*[#   9]+0.011*[#  12]+0.010*[#  27]+
          +0.010*[#  31]+0.001*[#   1]+
    |psi|^2 = 0.998
==== e(  19) =    10.20027 eV ==== 
     psi = 0.132*[#  28]+0.132*[#  29]+0.132*[#  30]+0.132*[#  32]+0.132*[#  33]+
          +0.132*[#  34]+0.056*[#  22]+0.056*[#  25]+0.012*[#   6]+0.012*[#   7]+
          +0.012*[#   8]+0.011*[#  10]+0.011*[#  11]+0.011*[#  13]+0.011*[#   9]+
          +0.011*[#  12]+
    |psi|^2 = 0.997
==== e(  20) =    11.20729 eV ==== 
     psi = 0.090*[#  28]+0.090*[#  29]+0.090*[#  30]+0.090*[#  32]+0.090*[#  33]+
          +0.090*[#  34]+0.070*[#   9]+0.070*[#  12]+0.063*[#  23]+0.063*[#  24]+
          +0.063*[#  26]+0.021*[#  22]+0.021*[#  25]+0.013*[#  27]+0.013*[#  31]+
          +0.007*[#   6]+0.007*[#   7]+0.007*[#   8]+0.006*[#  10]+0.006*[#  11]+
          +0.006*[#  13]+0.003*[#  15]+0.003*[#  19]+0.003*[#  20]+0.003*[#  21]+
          +0.001*[#   2]+
    |psi|^2 = 0.994
==== e(  21) =    11.42800 eV ==== 
     psi = 0.159*[#  23]+0.159*[#  24]+0.159*[#  26]+0.060*[#  28]+0.060*[#  29]+
          +0.060*[#  30]+0.060*[#  32]+0.060*[#  33]+0.060*[#  34]+0.028*[#   9]+
          +0.028*[#  12]+0.018*[#  10]+0.018*[#  11]+0.018*[#  13]+0.014*[#   2]+
          +0.009*[#  15]+0.004*[#  19]+0.004*[#  20]+0.004*[#  21]+0.003*[#  27]+
          +0.003*[#  31]+0.002*[#  22]+0.002*[#  25]+0.001*[#   6]+0.001*[#   7]+
          +0.001*[#   8]+
    |psi|^2 = 0.996
==== e(  22) =    11.79910 eV ==== 
     psi = 0.120*[#  28]+0.120*[#  29]+0.120*[#  30]+0.120*[#  32]+0.120*[#  33]+
          +0.120*[#  34]+0.098*[#   9]+0.098*[#  12]+0.011*[#  19]+0.011*[#  20]+
          +0.011*[#  21]+0.009*[#  22]+0.009*[#  25]+0.005*[#  10]+0.005*[#  11]+
          +0.005*[#  13]+0.004*[#  23]+0.004*[#  24]+0.004*[#  26]+
    |psi|^2 = 0.996
==== e(  23) =    15.55409 eV ==== 
     psi = 0.223*[#  23]+0.223*[#  24]+0.223*[#  26]+0.103*[#  22]+0.103*[#  25]+
          +0.017*[#  28]+0.017*[#  29]+0.017*[#  30]+0.017*[#  32]+0.017*[#  33]+
          +0.017*[#  34]+0.008*[#   2]+0.004*[#  27]+0.004*[#  31]+
    |psi|^2 = 0.994
==== e(  24) =    15.70928 eV ==== 
     psi = 0.192*[#  23]+0.192*[#  24]+0.192*[#  26]+0.177*[#  22]+0.177*[#  25]+
          +0.010*[#  28]+0.010*[#  29]+0.010*[#  30]+0.010*[#  32]+0.010*[#  33]+
          +0.010*[#  34]+0.002*[#   6]+0.002*[#   7]+0.002*[#   8]+0.002*[#   9]+
          +0.002*[#  12]+
    |psi|^2 = 0.998
==== e(  25) =    16.50231 eV ==== 
     psi = 0.288*[#  22]+0.288*[#  25]+0.078*[#  23]+0.078*[#  24]+0.078*[#  26]+
          +0.035*[#  27]+0.035*[#  31]+0.031*[#   2]+0.014*[#   6]+0.014*[#   7]+
          +0.014*[#   8]+0.005*[#  19]+0.005*[#  20]+0.005*[#  21]+0.003*[#  15]+
          +0.002*[#  28]+0.002*[#  29]+0.002*[#  30]+0.002*[#  32]+0.002*[#  33]+
          +0.002*[#  34]+0.001*[#  14]+
    |psi|^2 = 0.990
==== e(  26) =    17.17007 eV ==== 
     psi = 0.254*[#  22]+0.254*[#  25]+0.134*[#  23]+0.134*[#  24]+0.134*[#  26]+
          +0.014*[#  28]+0.014*[#  29]+0.014*[#  30]+0.014*[#  32]+0.014*[#  33]+
          +0.014*[#  34]+
    |psi|^2 = 0.997
==== e(  27) =    19.25650 eV ==== 
     psi = 0.098*[#   2]+0.076*[#  27]+0.076*[#  31]+0.066*[#  15]+0.050*[#  28]+
          +0.050*[#  29]+0.050*[#  30]+0.050*[#  32]+0.050*[#  33]+0.050*[#  34]+
          +0.044*[#   6]+0.044*[#   7]+0.044*[#   8]+0.042*[#  19]+0.042*[#  20]+
          +0.042*[#  21]+0.042*[#  22]+0.042*[#  25]+0.005*[#  14]+0.003*[#   1]+
          +0.003*[#   9]+0.003*[#  12]+0.002*[#  23]+0.002*[#  24]+0.002*[#  26]+
    |psi|^2 = 0.988
==== e(  28) =    22.71966 eV ==== 
     psi = 0.241*[#   2]+0.200*[#  15]+0.056*[#  19]+0.056*[#  20]+0.056*[#  21]+
          +0.032*[#  28]+0.032*[#  29]+0.032*[#  30]+0.032*[#  32]+0.032*[#  33]+
          +0.032*[#  34]+0.028*[#   6]+0.028*[#   7]+0.028*[#   8]+0.010*[#  27]+
          +0.010*[#  31]+0.005*[#  22]+0.005*[#  25]+0.004*[#   1]+0.002*[#  23]+
          +0.002*[#  24]+0.002*[#  26]+0.001*[#   9]+0.001*[#  12]+
    |psi|^2 = 0.932
==== e(  29) =    23.20688 eV ==== 
     psi = 0.196*[#   2]+0.171*[#  15]+0.079*[#   6]+0.079*[#   7]+0.079*[#   8]+
          +0.075*[#  19]+0.075*[#  20]+0.075*[#  21]+0.027*[#  27]+0.027*[#  31]+
          +0.007*[#   1]+0.003*[#  14]+0.003*[#  23]+0.003*[#  24]+0.003*[#  26]+
    |psi|^2 = 0.908
==== e(  30) =    23.97813 eV ==== 
     psi = 0.121*[#   6]+0.121*[#   7]+0.121*[#   8]+0.119*[#  19]+0.119*[#  20]+
          +0.119*[#  21]+0.025*[#  28]+0.025*[#  29]+0.025*[#  30]+0.025*[#  32]+
          +0.025*[#  33]+0.025*[#  34]+0.007*[#  15]+0.005*[#   2]+0.002*[#  23]+
          +0.002*[#  24]+0.002*[#  26]+
    |psi|^2 = 0.890
==== e(  31) =    25.19624 eV ==== 
     psi = 0.132*[#  15]+0.064*[#   6]+0.064*[#   7]+0.064*[#   8]+0.057*[#   2]+
          +0.041*[#  19]+0.041*[#  20]+0.041*[#  21]+0.007*[#  23]+0.007*[#  24]+
          +0.007*[#  26]+0.007*[#  14]+0.006*[#  28]+0.006*[#  29]+0.006*[#  30]+
          +0.006*[#  32]+0.006*[#  33]+0.006*[#  34]+0.006*[#   1]+0.002*[#  27]+
          +0.002*[#  31]+
    |psi|^2 = 0.587
==== e(  32) =    28.08355 eV ==== 
     psi = 0.200*[#  15]+0.143*[#   2]+0.057*[#  19]+0.057*[#  20]+0.057*[#  21]+
          +0.056*[#   6]+0.056*[#   7]+0.056*[#   8]+0.014*[#  14]+0.012*[#   1]+
          +0.002*[#  27]+0.002*[#  31]+
    |psi|^2 = 0.723
==== e(  33) =    29.95231 eV ==== 
     psi = 0.201*[#   6]+0.201*[#   7]+0.201*[#   8]+0.020*[#  19]+0.020*[#  20]+
          +0.020*[#  21]+0.005*[#  28]+0.005*[#  29]+0.005*[#  30]+0.005*[#  32]+
          +0.005*[#  33]+0.005*[#  34]+0.002*[#   3]+0.002*[#   4]+0.002*[#   5]+
          +0.001*[#  23]+0.001*[#  24]+0.001*[#  26]+
    |psi|^2 = 0.707
==== e(  34) =    30.79632 eV ==== 
     psi = 0.220*[#  19]+0.220*[#  20]+0.220*[#  21]+0.046*[#   6]+0.046*[#   7]+
          +0.046*[#   8]+0.007*[#  28]+0.007*[#  29]+0.007*[#  30]+0.007*[#  32]+
          +0.007*[#  33]+0.007*[#  34]+0.002*[#  16]+0.002*[#  17]+0.002*[#  18]+
    |psi|^2 = 0.849
==== e(  35) =    32.34707 eV ==== 
     psi = 0.055*[#  19]+0.055*[#  20]+0.055*[#  21]+0.049*[#   6]+0.049*[#   7]+
          +0.049*[#   8]+0.002*[#  28]+0.002*[#  29]+0.002*[#  30]+0.002*[#  32]+
          +0.002*[#  33]+0.002*[#  34]+
    |psi|^2 = 0.333

 k =  -0.7500000000  0.2500000000  0.2500000000
==== e(   1) =   -76.25624 eV ==== 
     psi = 0.973*[#   1]+0.008*[#   2]+0.005*[#  19]+0.005*[#  20]+0.005*[#  21]+
    |psi|^2 = 1.000
==== e(   2) =   -72.10995 eV ==== 
     psi = 0.974*[#  14]+0.007*[#  15]+0.005*[#   6]+0.005*[#   7]+0.005*[#   8]+
    |psi|^2 = 1.000
==== e(   3) =   -42.51920 eV ==== 
     psi = 0.329*[#   3]+0.329*[#   4]+0.329*[#   5]+0.002*[#   6]+0.002*[#   7]+
          +0.002*[#   8]+
    |psi|^2 = 0.998
==== e(   4) =   -42.44821 eV ==== 
     psi = 0.331*[#   3]+0.331*[#   4]+0.331*[#   5]+0.001*[#   6]+0.001*[#   7]+
          +0.001*[#   8]+
    |psi|^2 = 0.998
==== e(   5) =   -40.82461 eV ==== 
     psi = 0.329*[#   3]+0.329*[#   4]+0.329*[#   5]+0.002*[#   6]+0.002*[#   7]+
          +0.002*[#   8]+
    |psi|^2 = 0.998
==== e(   6) =   -38.21935 eV ==== 
     psi = 0.329*[#  16]+0.329*[#  17]+0.329*[#  18]+0.002*[#  19]+0.002*[#  20]+
          +0.002*[#  21]+
    |psi|^2 = 0.998
==== e(   7) =   -38.14253 eV ==== 
     psi = 0.331*[#  16]+0.331*[#  17]+0.331*[#  18]+0.001*[#  19]+0.001*[#  20]+
          +0.001*[#  21]+
    |psi|^2 = 0.998
==== e(   8) =   -37.42729 eV ==== 
     psi = 0.330*[#  16]+0.330*[#  17]+0.330*[#  18]+0.001*[#  19]+0.001*[#  20]+
          +0.001*[#  21]+
    |psi|^2 = 0.998
==== e(   9) =    -5.16066 eV ==== 
     psi = 0.395*[#  27]+0.395*[#  31]+0.040*[#  19]+0.040*[#  20]+0.040*[#  21]+
          +0.036*[#   9]+0.036*[#  12]+0.013*[#   2]+
    |psi|^2 = 0.999
==== e(  10) =    -4.62696 eV ==== 
     psi = 0.415*[#  27]+0.415*[#  31]+0.043*[#   6]+0.043*[#   7]+0.043*[#   8]+
          +0.012*[#  15]+0.012*[#  22]+0.012*[#  25]+
    |psi|^2 = 0.999
==== e(  11) =     5.12999 eV ==== 
     psi = 0.230*[#  10]+0.230*[#  11]+0.230*[#  13]+0.042*[#   2]+0.035*[#  28]+
          +0.035*[#  29]+0.035*[#  30]+0.035*[#  32]+0.035*[#  33]+0.035*[#  34]+
          +0.014*[#  19]+0.014*[#  20]+0.014*[#  21]+0.005*[#   9]+0.005*[#  12]+
          +0.003*[#  27]+0.003*[#  31]+0.001*[#   1]+
    |psi|^2 = 1.000
==== e(  12) =     6.18760 eV ==== 
     psi = 0.241*[#   9]+0.241*[#  12]+0.053*[#  28]+0.053*[#  29]+0.053*[#  30]+
          +0.053*[#  32]+0.053*[#  33]+0.053*[#  34]+0.032*[#  10]+0.032*[#  11]+
          +0.032*[#  13]+0.027*[#  19]+0.027*[#  20]+0.027*[#  21]+0.007*[#   2]+
          +0.006*[#  27]+0.006*[#  31]+0.001*[#  16]+0.001*[#  17]+0.001*[#  18]+
    |psi|^2 = 1.000
==== e(  13) =     6.38357 eV ==== 
     psi = 0.335*[#   9]+0.335*[#  12]+0.037*[#  28]+0.037*[#  29]+0.037*[#  30]+
          +0.037*[#  32]+0.037*[#  33]+0.037*[#  34]+0.032*[#  10]+0.032*[#  11]+
          +0.032*[#  13]+0.004*[#  19]+0.004*[#  20]+0.004*[#  21]+
    |psi|^2 = 1.000
==== e(  14) =     7.40729 eV ==== 
     psi = 0.105*[#  28]+0.105*[#  29]+0.105*[#  30]+0.105*[#  32]+0.105*[#  33]+
          +0.105*[#  34]+0.072*[#  15]+0.051*[#   6]+0.051*[#   7]+0.051*[#   8]+
          +0.035*[#  23]+0.035*[#  24]+0.035*[#  26]+0.007*[#  22]+0.007*[#  25]+
          +0.006*[#  27]+0.006*[#  31]+0.004*[#  14]+0.002*[#   3]+0.002*[#   4]+
          +0.002*[#   5]+
    |psi|^2 = 0.998
==== e(  15) =     7.48719 eV ==== 
     psi = 0.294*[#  10]+0.294*[#  11]+0.294*[#  13]+0.058*[#   9]+0.058*[#  12]+
    |psi|^2 = 1.000
==== e(  16) =     8.43440 eV ==== 
     psi = 0.188*[#  10]+0.188*[#  11]+0.188*[#  13]+0.096*[#   9]+0.096*[#  12]+
          +0.026*[#  28]+0.026*[#  29]+0.026*[#  30]+0.026*[#  32]+0.026*[#  33]+
          +0.026*[#  34]+0.026*[#   2]+0.017*[#  27]+0.017*[#  31]+0.007*[#  19]+
          +0.007*[#  20]+0.007*[#  21]+
    |psi|^2 = 0.997
==== e(  17) =     8.73808 eV ==== 
     psi = 0.116*[#  28]+0.116*[#  29]+0.116*[#  30]+0.116*[#  32]+0.116*[#  33]+
          +0.116*[#  34]+0.046*[#  23]+0.046*[#  24]+0.046*[#  26]+0.044*[#  15]+
          +0.030*[#  22]+0.030*[#  25]+0.018*[#   6]+0.018*[#   7]+0.018*[#   8]+
    |psi|^2 = 0.996
==== e(  18) =     9.81963 eV ==== 
     psi = 0.138*[#  28]+0.138*[#  29]+0.138*[#  30]+0.138*[#  32]+0.138*[#  33]+
          +0.138*[#  34]+0.055*[#  22]+0.055*[#  25]+0.017*[#   6]+0.017*[#   7]+
          +0.017*[#   8]+0.002*[#  23]+0.002*[#  24]+0.002*[#  26]+
    |psi|^2 = 0.997
==== e(  19) =     9.85158 eV ==== 
     psi = 0.186*[#  10]+0.186*[#  11]+0.186*[#  13]+0.063*[#   2]+0.058*[#  28]+
          +0.058*[#  29]+0.058*[#  30]+0.058*[#  32]+0.058*[#  33]+0.058*[#  34]+
          +0.008*[#  19]+0.008*[#  20]+0.008*[#  21]+0.004*[#   9]+0.004*[#  12]+
    |psi|^2 = 0.999
==== e(  20) =    11.15704 eV ==== 
     psi = 0.265*[#  23]+0.265*[#  24]+0.265*[#  26]+0.028*[#  28]+0.028*[#  29]+
          +0.028*[#  30]+0.028*[#  32]+0.028*[#  33]+0.028*[#  34]+0.011*[#  22]+
          +0.011*[#  25]+0.004*[#   6]+0.004*[#   7]+0.004*[#   8]+
    |psi|^2 = 0.997
==== e(  21) =    11.40022 eV ==== 
     psi = 0.113*[#   9]+0.113*[#  12]+0.095*[#  28]+0.095*[#  29]+0.095*[#  30]+
          +0.095*[#  32]+0.095*[#  33]+0.095*[#  34]+0.028*[#  10]+0.028*[#  11]+
          +0.028*[#  13]+0.021*[#  27]+0.021*[#  31]+0.020*[#  19]+0.020*[#  20]+
          +0.020*[#  21]+0.006*[#   2]+0.001*[#  16]+0.001*[#  17]+0.001*[#  18]+
    |psi|^2 = 0.992
==== e(  22) =    11.91130 eV ==== 
     psi = 0.120*[#  28]+0.120*[#  29]+0.120*[#  30]+0.120*[#  32]+0.120*[#  33]+
          +0.120*[#  34]+0.106*[#   9]+0.106*[#  12]+0.014*[#  19]+0.014*[#  20]+
          +0.014*[#  21]+0.007*[#  10]+0.007*[#  11]+0.007*[#  13]+
    |psi|^2 = 0.996
==== e(  23) =    15.57331 eV ==== 
     psi = 0.239*[#  23]+0.239*[#  24]+0.239*[#  26]+0.086*[#  22]+0.086*[#  25]+
          +0.015*[#  28]+0.015*[#  29]+0.015*[#  30]+0.015*[#  32]+0.015*[#  33]+
          +0.015*[#  34]+0.004*[#  15]+0.003*[#  27]+0.003*[#  31]+0.002*[#   6]+
          +0.002*[#   7]+0.002*[#   8]+
    |psi|^2 = 0.994
==== e(  24) =    15.70638 eV ==== 
     psi = 0.212*[#  22]+0.212*[#  25]+0.181*[#  23]+0.181*[#  24]+0.181*[#  26]+
          +0.004*[#  28]+0.004*[#  29]+0.004*[#  30]+0.004*[#  32]+0.004*[#  33]+
          +0.004*[#  34]+0.002*[#   6]+0.002*[#   7]+0.002*[#   8]+
    |psi|^2 = 0.999
==== e(  25) =    16.79838 eV ==== 
     psi = 0.336*[#  22]+0.336*[#  25]+0.064*[#  23]+0.064*[#  24]+0.064*[#  26]+
          +0.025*[#  27]+0.025*[#  31]+0.014*[#   6]+0.014*[#   7]+0.014*[#   8]+
          +0.005*[#  28]+0.005*[#  29]+0.005*[#  30]+0.005*[#  32]+0.005*[#  33]+
          +0.005*[#  34]+
    |psi|^2 = 0.990
==== e(  26) =    17.26952 eV ==== 
     psi = 0.231*[#  22]+0.231*[#  25]+0.150*[#  23]+0.150*[#  24]+0.150*[#  26]+
          +0.014*[#  28]+0.014*[#  29]+0.014*[#  30]+0.014*[#  32]+0.014*[#  33]+
          +0.014*[#  34]+0.001*[#   6]+0.001*[#   7]+0.001*[#   8]+
    |psi|^2 = 0.998
==== e(  27) =    21.08115 eV ==== 
     psi = 0.389*[#   2]+0.102*[#  19]+0.102*[#  20]+0.102*[#  21]+0.039*[#  27]+
          +0.039*[#  31]+0.032*[#  28]+0.032*[#  29]+0.032*[#  30]+0.032*[#  32]+
          +0.032*[#  33]+0.032*[#  34]+0.002*[#   9]+0.002*[#  12]+
    |psi|^2 = 0.970
==== e(  28) =    21.43822 eV ==== 
     psi = 0.200*[#  15]+0.148*[#   6]+0.148*[#   7]+0.148*[#   8]+0.039*[#  27]+
          +0.039*[#  31]+0.033*[#  28]+0.033*[#  29]+0.033*[#  30]+0.033*[#  32]+
          +0.033*[#  33]+0.033*[#  34]+0.014*[#  22]+0.014*[#  25]+0.003*[#  23]+
          +0.003*[#  24]+0.003*[#  26]+
    |psi|^2 = 0.956
==== e(  29) =    23.21941 eV ==== 
     psi = 0.331*[#   2]+0.115*[#  19]+0.115*[#  20]+0.115*[#  21]+0.017*[#  28]+
          +0.017*[#  29]+0.017*[#  30]+0.017*[#  32]+0.017*[#  33]+0.017*[#  34]+
          +0.014*[#   1]+0.010*[#  27]+0.010*[#  31]+0.001*[#  10]+0.001*[#  11]+
          +0.001*[#  13]+0.001*[#   9]+0.001*[#  12]+
    |psi|^2 = 0.818
==== e(  30) =    23.84255 eV ==== 
     psi = 0.557*[#  15]+0.062*[#   6]+0.062*[#   7]+0.062*[#   8]+0.017*[#  28]+
          +0.017*[#  29]+0.017*[#  30]+0.017*[#  32]+0.017*[#  33]+0.017*[#  34]+
          +0.015*[#  14]+0.005*[#  23]+0.005*[#  24]+0.005*[#  26]+0.003*[#  22]+
          +0.003*[#  25]+0.002*[#  27]+0.002*[#  31]+
    |psi|^2 = 0.883
==== e(  31) =    25.26595 eV ==== 
     psi = 0.213*[#  19]+0.213*[#  20]+0.213*[#  21]+0.088*[#   2]+0.010*[#  28]+
          +0.010*[#  29]+0.010*[#  30]+0.010*[#  32]+0.010*[#  33]+0.010*[#  34]+
          +0.006*[#   1]+0.002*[#  16]+0.002*[#  17]+0.002*[#  18]+
    |psi|^2 = 0.801
==== e(  32) =    25.71844 eV ==== 
     psi = 0.222*[#   6]+0.222*[#   7]+0.222*[#   8]+0.067*[#  15]+0.008*[#  23]+
          +0.008*[#  24]+0.008*[#  26]+0.008*[#  28]+0.008*[#  29]+0.008*[#  30]+
          +0.008*[#  32]+0.008*[#  33]+0.008*[#  34]+0.004*[#  14]+0.002*[#   3]+
          +0.002*[#   4]+0.002*[#   5]+
    |psi|^2 = 0.816
==== e(  33) =    29.88661 eV ==== 
     psi = 0.240*[#   6]+0.240*[#   7]+0.240*[#   8]+0.008*[#  28]+0.008*[#  29]+
          +0.008*[#  30]+0.008*[#  32]+0.008*[#  33]+0.008*[#  34]+0.002*[#   3]+
          +0.002*[#   4]+0.002*[#   5]+
    |psi|^2 = 0.774
==== e(  34) =    30.53437 eV ==== 
     psi = 0.236*[#  19]+0.236*[#  20]+0.236*[#  21]+0.007*[#  28]+0.007*[#  29]+
          +0.007*[#  30]+0.007*[#  32]+0.007*[#  33]+0.007*[#  34]+0.002*[#  16]+
          +0.002*[#  17]+0.002*[#  18]+
    |psi|^2 = 0.756
==== e(  35) =    32.35597 eV ==== 
     psi = 0.068*[#  19]+0.068*[#  20]+0.068*[#  21]+0.005*[#   2]+0.005*[#  27]+
          +0.005*[#  31]+0.003*[#  28]+0.003*[#  29]+0.003*[#  30]+0.003*[#  32]+
          +0.003*[#  33]+0.003*[#  34]+
    |psi|^2 = 0.238

 k =   0.1666666667  0.1666666667 -0.1666666667
==== e(   1) =   -76.25642 eV ==== 
     psi = 0.943*[#   1]+0.009*[#   6]+0.009*[#   7]+0.009*[#   8]+0.007*[#  19]+
          +0.007*[#  20]+0.007*[#  21]+0.002*[#   2]+0.001*[#  15]+
    |psi|^2 = 1.000
==== e(   2) =   -72.11627 eV ==== 
     psi = 0.943*[#  14]+0.010*[#  19]+0.010*[#  20]+0.010*[#  21]+0.007*[#   6]+
          +0.007*[#   7]+0.007*[#   8]+0.001*[#   2]+0.001*[#  15]+
    |psi|^2 = 1.000
==== e(   3) =   -42.45844 eV ==== 
     psi = 0.330*[#   3]+0.330*[#   4]+0.330*[#   5]+0.002*[#   2]+
    |psi|^2 = 0.998
==== e(   4) =   -42.43711 eV ==== 
     psi = 0.328*[#   3]+0.328*[#   4]+0.328*[#   5]+0.004*[#   6]+0.004*[#   7]+
          +0.004*[#   8]+
    |psi|^2 = 0.999
==== e(   5) =   -40.81527 eV ==== 
     psi = 0.328*[#   3]+0.328*[#   4]+0.328*[#   5]+0.004*[#  19]+0.004*[#  20]+
          +0.004*[#  21]+
    |psi|^2 = 0.998
==== e(   6) =   -38.15032 eV ==== 
     psi = 0.330*[#  16]+0.330*[#  17]+0.330*[#  18]+0.002*[#  15]+
    |psi|^2 = 0.998
==== e(   7) =   -38.12704 eV ==== 
     psi = 0.329*[#  16]+0.329*[#  17]+0.329*[#  18]+0.003*[#  19]+0.003*[#  20]+
          +0.003*[#  21]+
    |psi|^2 = 0.999
==== e(   8) =   -37.41254 eV ==== 
     psi = 0.328*[#  16]+0.328*[#  17]+0.328*[#  18]+0.004*[#   6]+0.004*[#   7]+
          +0.004*[#   8]+
    |psi|^2 = 0.998
==== e(   9) =    -5.69094 eV ==== 
     psi = 0.303*[#  27]+0.303*[#  31]+0.083*[#   2]+0.077*[#  15]+0.036*[#   6]+
          +0.036*[#   7]+0.036*[#   8]+0.036*[#  19]+0.036*[#  20]+0.036*[#  21]+
          +0.008*[#  14]+0.008*[#   1]+
    |psi|^2 = 1.000
==== e(  10) =    -4.79815 eV ==== 
     psi = 0.396*[#  27]+0.396*[#  31]+0.029*[#   6]+0.029*[#   7]+0.029*[#   8]+
          +0.028*[#  19]+0.028*[#  20]+0.028*[#  21]+0.009*[#   9]+0.009*[#  12]+
          +0.003*[#  22]+0.003*[#  25]+0.003*[#  15]+0.003*[#   2]+
    |psi|^2 = 0.999
==== e(  11) =     5.47392 eV ==== 
     psi = 0.081*[#  10]+0.081*[#  11]+0.081*[#  13]+0.074*[#  28]+0.074*[#  29]+
          +0.074*[#  30]+0.074*[#  32]+0.074*[#  33]+0.074*[#  34]+0.070*[#   2]+
          +0.059*[#  15]+0.037*[#  23]+0.037*[#  24]+0.037*[#  26]+0.010*[#   6]+
          +0.010*[#   7]+0.010*[#   8]+0.009*[#  19]+0.009*[#  20]+0.009*[#  21]+
          +0.002*[#   1]+0.002*[#  27]+0.002*[#  31]+0.002*[#  14]+
    |psi|^2 = 0.999
==== e(  12) =     5.81499 eV ==== 
     psi = 0.189*[#   9]+0.189*[#  12]+0.143*[#  10]+0.143*[#  11]+0.143*[#  13]+
          +0.027*[#  28]+0.027*[#  29]+0.027*[#  30]+0.027*[#  32]+0.027*[#  33]+
          +0.027*[#  34]+0.004*[#  19]+0.004*[#  20]+0.004*[#  21]+0.003*[#   6]+
          +0.003*[#   7]+0.003*[#   8]+0.002*[#  15]+0.001*[#  22]+0.001*[#  25]+
          +0.001*[#  27]+0.001*[#  31]+
    |psi|^2 = 1.000
==== e(  13) =     6.15006 eV ==== 
     psi = 0.291*[#   9]+0.291*[#  12]+0.081*[#  10]+0.081*[#  11]+0.081*[#  13]+
          +0.028*[#  28]+0.028*[#  29]+0.028*[#  30]+0.028*[#  32]+0.028*[#  33]+
          +0.028*[#  34]+0.002*[#  22]+0.002*[#  25]+0.001*[#   6]+0.001*[#   7]+
          +0.001*[#   8]+
    |psi|^2 = 1.000
==== e(  14) =     7.05897 eV ==== 
     psi = 0.186*[#   9]+0.186*[#  12]+0.163*[#  10]+0.163*[#  11]+0.163*[#  13]+
          +0.019*[#  28]+0.019*[#  29]+0.019*[#  30]+0.019*[#  32]+0.019*[#  33]+
          +0.019*[#  34]+0.006*[#  15]+0.005*[#  27]+0.005*[#  31]+0.002*[#  23]+
          +0.002*[#  24]+0.002*[#  26]+0.002*[#   2]+
    |psi|^2 = 0.999
==== e(  15) =     7.14750 eV ==== 
     psi = 0.241*[#  10]+0.241*[#  11]+0.241*[#  13]+0.109*[#   9]+0.109*[#  12]+
          +0.009*[#  28]+0.009*[#  29]+0.009*[#  30]+0.009*[#  32]+0.009*[#  33]+
          +0.009*[#  34]+
    |psi|^2 = 1.000
==== e(  16) =     8.90172 eV ==== 
     psi = 0.177*[#  10]+0.177*[#  11]+0.177*[#  13]+0.082*[#  23]+0.082*[#  24]+
          +0.082*[#  26]+0.027*[#  28]+0.027*[#  29]+0.027*[#  30]+0.027*[#  32]+
          +0.027*[#  33]+0.027*[#  34]+0.027*[#   2]+0.007*[#   9]+0.007*[#  12]+
          +0.004*[#  27]+0.004*[#  31]+0.001*[#  22]+0.001*[#  25]+0.001*[#  19]+
          +0.001*[#  20]+0.001*[#  21]+
    |psi|^2 = 0.998
==== e(  17) =     9.75367 eV ==== 
     psi = 0.119*[#  28]+0.119*[#  29]+0.119*[#  30]+0.119*[#  32]+0.119*[#  33]+
          +0.119*[#  34]+0.040*[#  15]+0.028*[#   2]+0.027*[#  22]+0.027*[#  25]+
          +0.021*[#  27]+0.021*[#  31]+0.016*[#  23]+0.016*[#  24]+0.016*[#  26]+
          +0.012*[#   9]+0.012*[#  12]+0.008*[#  10]+0.008*[#  11]+0.008*[#  13]+
          +0.005*[#   6]+0.005*[#   7]+0.005*[#   8]+0.002*[#   1]+0.001*[#  19]+
          +0.001*[#  20]+0.001*[#  21]+0.001*[#  14]+
    |psi|^2 = 0.995
==== e(  18) =    10.26984 eV ==== 
     psi = 0.106*[#  28]+0.106*[#  29]+0.106*[#  30]+0.106*[#  32]+0.106*[#  33]+
          +0.106*[#  34]+0.054*[#  10]+0.054*[#  11]+0.054*[#  13]+0.036*[#  22]+
          +0.036*[#  25]+0.025*[#  15]+0.014*[#   9]+0.014*[#  12]+0.013*[#  27]+
          +0.013*[#  31]+0.012*[#   2]+0.005*[#   6]+0.005*[#   7]+0.005*[#   8]+
          +0.004*[#  19]+0.004*[#  20]+0.004*[#  21]+0.002*[#  23]+0.002*[#  24]+
          +0.002*[#  26]+0.002*[#  14]+
    |psi|^2 = 0.996
==== e(  19) =    10.43177 eV ==== 
     psi = 0.130*[#  28]+0.130*[#  29]+0.130*[#  30]+0.130*[#  32]+0.130*[#  33]+
          +0.130*[#  34]+0.069*[#  22]+0.069*[#  25]+0.011*[#   9]+0.011*[#  12]+
          +0.011*[#  10]+0.011*[#  11]+0.011*[#  13]+0.005*[#   6]+0.005*[#   7]+
          +0.005*[#   8]+0.002*[#  23]+0.002*[#  24]+0.002*[#  26]+
    |psi|^2 = 0.996
==== e(  20) =    11.46811 eV ==== 
     psi = 0.186*[#  23]+0.186*[#  24]+0.186*[#  26]+0.045*[#  28]+0.045*[#  29]+
          +0.045*[#  30]+0.045*[#  32]+0.045*[#  33]+0.045*[#  34]+0.035*[#  10]+
          +0.035*[#  11]+0.035*[#  13]+0.027*[#   2]+0.017*[#  15]+0.005*[#   9]+
          +0.005*[#  12]+0.003*[#  22]+0.003*[#  25]+
    |psi|^2 = 0.998
==== e(  21) =    11.88451 eV ==== 
     psi = 0.126*[#  28]+0.126*[#  29]+0.126*[#  30]+0.126*[#  32]+0.126*[#  33]+
          +0.126*[#  34]+0.073*[#   9]+0.073*[#  12]+0.016*[#  23]+0.016*[#  24]+
          +0.016*[#  26]+0.007*[#  19]+0.007*[#  20]+0.007*[#  21]+0.005*[#  27]+
          +0.005*[#  31]+0.002*[#  10]+0.002*[#  11]+0.002*[#  13]+
    |psi|^2 = 0.993
==== e(  22) =    11.90257 eV ==== 
     psi = 0.129*[#  28]+0.129*[#  29]+0.129*[#  30]+0.129*[#  32]+0.129*[#  33]+
          +0.129*[#  34]+0.086*[#   9]+0.086*[#  12]+0.007*[#  23]+0.007*[#  24]+
          +0.007*[#  26]+0.006*[#  19]+0.006*[#  20]+0.006*[#  21]+0.006*[#  22]+
          +0.006*[#  25]+
    |psi|^2 = 0.994
==== e(  23) =    15.56248 eV ==== 
     psi = 0.235*[#  23]+0.235*[#  24]+0.235*[#  26]+0.071*[#  22]+0.071*[#  25]+
          +0.014*[#  28]+0.014*[#  29]+0.014*[#  30]+0.014*[#  32]+0.014*[#  33]+
          +0.014*[#  34]+0.012*[#  27]+0.012*[#  31]+0.006*[#   6]+0.006*[#   7]+
          +0.006*[#   8]+0.005*[#   2]+0.005*[#  15]+0.002*[#  19]+0.002*[#  20]+
          +0.002*[#  21]+0.001*[#   9]+0.001*[#  12]+0.001*[#   1]+
    |psi|^2 = 0.993
==== e(  24) =    15.67877 eV ==== 
     psi = 0.214*[#  23]+0.214*[#  24]+0.214*[#  26]+0.120*[#  22]+0.120*[#  25]+
          +0.017*[#  28]+0.017*[#  29]+0.017*[#  30]+0.017*[#  32]+0.017*[#  33]+
          +0.017*[#  34]+0.002*[#   9]+0.002*[#  12]+0.002*[#   6]+0.002*[#   7]+
          +0.002*[#   8]+
    |psi|^2 = 0.996
==== e(  25) =    16.46927 eV ==== 
     psi = 0.120*[#   2]+0.119*[#  27]+0.119*[#  31]+0.098*[#  22]+0.098*[#  25]+
          +0.087*[#  15]+0.030*[#   6]+0.030*[#   7]+0.030*[#   8]+0.028*[#  28]+
          +0.028*[#  29]+0.028*[#  30]+0.028*[#  32]+0.028*[#  33]+0.028*[#  34]+
          +0.026*[#  19]+0.026*[#  20]+0.026*[#  21]+0.009*[#  14]+0.005*[#   1]+
    |psi|^2 = 0.993
==== e(  26) =    16.72360 eV ==== 
     psi = 0.246*[#  22]+0.246*[#  25]+0.077*[#  23]+0.077*[#  24]+0.077*[#  26]+
          +0.034*[#  27]+0.034*[#  31]+0.030*[#   2]+0.025*[#  15]+0.015*[#  28]+
          +0.015*[#  29]+0.015*[#  30]+0.015*[#  32]+0.015*[#  33]+0.015*[#  34]+
          +0.009*[#  19]+0.009*[#  20]+0.009*[#  21]+0.009*[#   6]+0.009*[#   7]+
          +0.009*[#   8]+0.002*[#   1]+
    |psi|^2 = 0.991
==== e(  27) =    16.90554 eV ==== 
     psi = 0.301*[#  22]+0.301*[#  25]+0.106*[#  23]+0.106*[#  24]+0.106*[#  26]+
          +0.011*[#  28]+0.011*[#  29]+0.011*[#  30]+0.011*[#  32]+0.011*[#  33]+
          +0.011*[#  34]+
    |psi|^2 = 0.995
==== e(  28) =    20.79353 eV ==== 
     psi = 0.099*[#   6]+0.099*[#   7]+0.099*[#   8]+0.096*[#  19]+0.096*[#  20]+
          +0.096*[#  21]+0.063*[#  27]+0.063*[#  31]+0.031*[#  15]+0.021*[#  28]+
          +0.021*[#  29]+0.021*[#  30]+0.021*[#  32]+0.021*[#  33]+0.021*[#  34]+
          +0.019*[#   2]+0.010*[#  22]+0.010*[#  25]+0.005*[#  23]+0.005*[#  24]+
          +0.005*[#  26]+0.002*[#   9]+0.002*[#  12]+
    |psi|^2 = 0.928
==== e(  29) =    23.30927 eV ==== 
     psi = 0.315*[#  15]+0.303*[#   2]+0.030*[#  28]+0.030*[#  29]+0.030*[#  30]+
          +0.030*[#  32]+0.030*[#  33]+0.030*[#  34]+0.022*[#  19]+0.022*[#  20]+
          +0.022*[#  21]+0.014*[#   6]+0.014*[#   7]+0.014*[#   8]+0.008*[#   1]+
          +0.004*[#  14]+0.001*[#  23]+0.001*[#  24]+0.001*[#  26]+0.001*[#  27]+
          +0.001*[#  31]+
    |psi|^2 = 0.928
==== e(  30) =    26.71481 eV ==== 
     psi = 0.148*[#   6]+0.148*[#   7]+0.148*[#   8]+0.108*[#   2]+0.050*[#  19]+
          +0.050*[#  20]+0.050*[#  21]+0.008*[#   1]+0.003*[#  28]+0.003*[#  29]+
          +0.003*[#  30]+0.003*[#  32]+0.003*[#  33]+0.003*[#  34]+0.002*[#  15]+
          +0.002*[#  23]+0.002*[#  24]+0.002*[#  26]+0.002*[#   3]+0.002*[#   4]+
          +0.002*[#   5]+
    |psi|^2 = 0.747
==== e(  31) =    26.90064 eV ==== 
     psi = 0.132*[#  15]+0.078*[#  19]+0.078*[#  20]+0.078*[#  21]+0.016*[#   2]+
          +0.011*[#  14]+0.004*[#   6]+0.004*[#   7]+0.004*[#   8]+0.003*[#   1]+
          +0.003*[#  23]+0.003*[#  24]+0.003*[#  26]+0.002*[#  28]+0.002*[#  29]+
          +0.002*[#  30]+0.002*[#  32]+0.002*[#  33]+0.002*[#  34]+
    |psi|^2 = 0.432
==== e(  32) =    29.69297 eV ==== 
     psi = 0.147*[#   6]+0.147*[#   7]+0.147*[#   8]+0.083*[#  19]+0.083*[#  20]+
          +0.083*[#  21]+0.004*[#  28]+0.004*[#  29]+0.004*[#  30]+0.004*[#  32]+
          +0.004*[#  33]+0.004*[#  34]+0.002*[#   3]+0.002*[#   4]+0.002*[#   5]+
    |psi|^2 = 0.723
==== e(  33) =    30.89747 eV ==== 
     psi = 0.065*[#  19]+0.065*[#  20]+0.065*[#  21]+0.023*[#   6]+0.023*[#   7]+
          +0.023*[#   8]+0.002*[#  23]+0.002*[#  24]+0.002*[#  26]+0.001*[#  16]+
          +0.001*[#  17]+0.001*[#  18]+
    |psi|^2 = 0.280
==== e(  34) =    31.07322 eV ==== 
     psi = 0.042*[#  19]+0.042*[#  20]+0.042*[#  21]+0.041*[#   6]+0.041*[#   7]+
          +0.041*[#   8]+0.001*[#  23]+0.001*[#  24]+0.001*[#  26]+0.001*[#   3]+
          +0.001*[#   4]+0.001*[#   5]+0.001*[#  16]+0.001*[#  17]+0.001*[#  18]+
    |psi|^2 = 0.267
==== e(  35) =    33.40247 eV ==== 
     psi = 0.050*[#  15]+0.031*[#   2]+0.029*[#   6]+0.029*[#   7]+0.029*[#   8]+
          +0.005*[#  14]+0.005*[#  19]+0.005*[#  20]+0.005*[#  21]+0.004*[#   1]+
          +0.002*[#  27]+0.002*[#  31]+0.001*[#  28]+0.001*[#  29]+0.001*[#  30]+
          +0.001*[#  32]+0.001*[#  33]+0.001*[#  34]+
    |psi|^2 = 0.201

 k =   0.4166666667  0.0833333333 -0.2500000000
==== e(   1) =   -76.25608 eV ==== 
     psi = 0.944*[#   1]+0.009*[#   6]+0.009*[#   7]+0.009*[#   8]+0.007*[#   2]+
          +0.006*[#  19]+0.006*[#  20]+0.006*[#  21]+
    |psi|^2 = 1.000
==== e(   2) =   -72.11648 eV ==== 
     psi = 0.944*[#  14]+0.009*[#  19]+0.009*[#  20]+0.009*[#  21]+0.006*[#  15]+
          +0.006*[#   6]+0.006*[#   7]+0.006*[#   8]+
    |psi|^2 = 1.000
==== e(   3) =   -42.49984 eV ==== 
     psi = 0.330*[#   3]+0.330*[#   4]+0.330*[#   5]+0.001*[#   2]+0.001*[#  19]+
          +0.001*[#  20]+0.001*[#  21]+
    |psi|^2 = 0.998
==== e(   4) =   -42.46540 eV ==== 
     psi = 0.329*[#   3]+0.329*[#   4]+0.329*[#   5]+0.003*[#   6]+0.003*[#   7]+
          +0.003*[#   8]+
    |psi|^2 = 0.998
==== e(   5) =   -40.81612 eV ==== 
     psi = 0.329*[#   3]+0.329*[#   4]+0.329*[#   5]+0.002*[#  19]+0.002*[#  20]+
          +0.002*[#  21]+
    |psi|^2 = 0.998
==== e(   6) =   -38.19402 eV ==== 
     psi = 0.329*[#  16]+0.329*[#  17]+0.329*[#  18]+0.001*[#   6]+0.001*[#   7]+
          +0.001*[#   8]+0.001*[#  15]+
    |psi|^2 = 0.998
==== e(   7) =   -38.15377 eV ==== 
     psi = 0.329*[#  16]+0.329*[#  17]+0.329*[#  18]+0.003*[#  19]+0.003*[#  20]+
          +0.003*[#  21]+
    |psi|^2 = 0.998
==== e(   8) =   -37.41511 eV ==== 
     psi = 0.329*[#  16]+0.329*[#  17]+0.329*[#  18]+0.002*[#   6]+0.002*[#   7]+
          +0.002*[#   8]+
    |psi|^2 = 0.998
==== e(   9) =    -5.31374 eV ==== 
     psi = 0.329*[#  27]+0.329*[#  31]+0.041*[#   6]+0.041*[#   7]+0.041*[#   8]+
          +0.041*[#  19]+0.041*[#  20]+0.041*[#  21]+0.035*[#  15]+0.033*[#   2]+
          +0.006*[#  14]+0.005*[#   1]+0.004*[#   9]+0.004*[#  12]+
    |psi|^2 = 1.000
==== e(  10) =    -4.84976 eV ==== 
     psi = 0.408*[#  27]+0.408*[#  31]+0.021*[#   6]+0.021*[#   7]+0.021*[#   8]+
          +0.020*[#  19]+0.020*[#  20]+0.020*[#  21]+0.019*[#   9]+0.019*[#  12]+
          +0.007*[#   2]+0.007*[#  22]+0.007*[#  25]+
    |psi|^2 = 0.999
==== e(  11) =     5.62351 eV ==== 
     psi = 0.162*[#  10]+0.162*[#  11]+0.162*[#  13]+0.116*[#   9]+0.116*[#  12]+
          +0.035*[#  28]+0.035*[#  29]+0.035*[#  30]+0.035*[#  32]+0.035*[#  33]+
          +0.035*[#  34]+0.020*[#  15]+0.008*[#   6]+0.008*[#   7]+0.008*[#   8]+
          +0.008*[#  19]+0.008*[#  20]+0.008*[#  21]+0.001*[#  14]+
    |psi|^2 = 1.000
==== e(  12) =     6.19737 eV ==== 
     psi = 0.204*[#   9]+0.204*[#  12]+0.090*[#  10]+0.090*[#  11]+0.090*[#  13]+
          +0.041*[#  28]+0.041*[#  29]+0.041*[#  30]+0.041*[#  32]+0.041*[#  33]+
          +0.041*[#  34]+0.016*[#  15]+0.011*[#   2]+0.008*[#  23]+0.008*[#  24]+
          +0.008*[#  26]+0.004*[#  19]+0.004*[#  20]+0.004*[#  21]+0.002*[#   6]+
          +0.002*[#   7]+0.002*[#   8]+0.001*[#  27]+0.001*[#  31]+0.001*[#  22]+
          +0.001*[#  25]+
    |psi|^2 = 0.999
==== e(  13) =     6.36552 eV ==== 
     psi = 0.124*[#   9]+0.124*[#  12]+0.098*[#  10]+0.098*[#  11]+0.098*[#  13]+
          +0.049*[#  28]+0.049*[#  29]+0.049*[#  30]+0.049*[#  32]+0.049*[#  33]+
          +0.049*[#  34]+0.037*[#   2]+0.020*[#  23]+0.020*[#  24]+0.020*[#  26]+
          +0.012*[#   6]+0.012*[#   7]+0.012*[#   8]+0.005*[#  19]+0.005*[#  20]+
          +0.005*[#  21]+0.005*[#  27]+0.005*[#  31]+0.002*[#   1]+0.002*[#  22]+
          +0.002*[#  25]+
    |psi|^2 = 0.999
==== e(  14) =     6.79566 eV ==== 
     psi = 0.169*[#   9]+0.169*[#  12]+0.147*[#  10]+0.147*[#  11]+0.147*[#  13]+
          +0.028*[#  28]+0.028*[#  29]+0.028*[#  30]+0.028*[#  32]+0.028*[#  33]+
          +0.028*[#  34]+0.007*[#  27]+0.007*[#  31]+0.006*[#  22]+0.006*[#  25]+
          +0.004*[#  19]+0.004*[#  20]+0.004*[#  21]+0.003*[#  15]+0.003*[#  23]+
          +0.003*[#  24]+0.003*[#  26]+0.002*[#   2]+0.001*[#   6]+0.001*[#   7]+
          +0.001*[#   8]+
    |psi|^2 = 0.999
==== e(  15) =     7.17665 eV ==== 
     psi = 0.148*[#  10]+0.148*[#  11]+0.148*[#  13]+0.106*[#   9]+0.106*[#  12]+
          +0.041*[#  28]+0.041*[#  29]+0.041*[#  30]+0.041*[#  32]+0.041*[#  33]+
          +0.041*[#  34]+0.015*[#  15]+0.008*[#  27]+0.008*[#  31]+0.007*[#   6]+
          +0.007*[#   7]+0.007*[#   8]+0.006*[#  23]+0.006*[#  24]+0.006*[#  26]+
          +0.006*[#  19]+0.006*[#  20]+0.006*[#  21]+0.003*[#  22]+0.003*[#  25]+
    |psi|^2 = 0.999
==== e(  16) =     8.46371 eV ==== 
     psi = 0.134*[#  10]+0.134*[#  11]+0.134*[#  13]+0.061*[#   2]+0.059*[#  28]+
          +0.059*[#  29]+0.059*[#  30]+0.059*[#  32]+0.059*[#  33]+0.059*[#  34]+
          +0.026*[#  23]+0.026*[#  24]+0.026*[#  26]+0.013*[#  27]+0.013*[#  31]+
          +0.012*[#   9]+0.012*[#  12]+0.011*[#  22]+0.011*[#  25]+0.006*[#  19]+
          +0.006*[#  20]+0.006*[#  21]+0.003*[#   6]+0.003*[#   7]+0.003*[#   8]+
          +0.002*[#  15]+0.001*[#   1]+
    |psi|^2 = 0.998
==== e(  17) =     9.23080 eV ==== 
     psi = 0.110*[#  28]+0.110*[#  29]+0.110*[#  30]+0.110*[#  32]+0.110*[#  33]+
          +0.110*[#  34]+0.043*[#  23]+0.043*[#  24]+0.043*[#  26]+0.026*[#  22]+
          +0.026*[#  25]+0.019*[#  10]+0.019*[#  11]+0.019*[#  13]+0.017*[#   6]+
          +0.017*[#   7]+0.017*[#   8]+0.012*[#  19]+0.012*[#  20]+0.012*[#  21]+
          +0.002*[#   9]+0.002*[#  12]+0.002*[#  15]+0.001*[#  27]+0.001*[#  31]+
    |psi|^2 = 0.997
==== e(  18) =     9.90607 eV ==== 
     psi = 0.134*[#  10]+0.134*[#  11]+0.134*[#  13]+0.058*[#  28]+0.058*[#  29]+
          +0.058*[#  30]+0.058*[#  32]+0.058*[#  33]+0.058*[#  34]+0.037*[#  15]+
          +0.028*[#  23]+0.028*[#  24]+0.028*[#  26]+0.020*[#   9]+0.020*[#  12]+
          +0.015*[#  27]+0.015*[#  31]+0.009*[#   2]+0.008*[#  19]+0.008*[#  20]+
          +0.008*[#  21]+0.004*[#  22]+0.004*[#  25]+0.003*[#   6]+0.003*[#   7]+
          +0.003*[#   8]+0.002*[#  14]+
    |psi|^2 = 0.997
==== e(  19) =    10.48445 eV ==== 
     psi = 0.119*[#  28]+0.119*[#  29]+0.119*[#  30]+0.119*[#  32]+0.119*[#  33]+
          +0.119*[#  34]+0.033*[#  22]+0.033*[#  25]+0.028*[#  10]+0.028*[#  11]+
          +0.028*[#  13]+0.027*[#   9]+0.027*[#  12]+0.014*[#  15]+0.010*[#  23]+
          +0.010*[#  24]+0.010*[#  26]+0.007*[#   6]+0.007*[#   7]+0.007*[#   8]+
          +0.003*[#  19]+0.003*[#  20]+0.003*[#  21]+0.001*[#   2]+
    |psi|^2 = 0.997
==== e(  20) =    11.23695 eV ==== 
     psi = 0.103*[#  28]+0.103*[#  29]+0.103*[#  30]+0.103*[#  32]+0.103*[#  33]+
          +0.103*[#  34]+0.080*[#   9]+0.080*[#  12]+0.030*[#  23]+0.030*[#  24]+
          +0.030*[#  26]+0.025*[#  15]+0.016*[#  22]+0.016*[#  25]+0.012*[#  10]+
          +0.012*[#  11]+0.012*[#  13]+0.006*[#  27]+0.006*[#  31]+0.006*[#   2]+
          +0.004*[#  19]+0.004*[#  20]+0.004*[#  21]+0.003*[#   6]+0.003*[#   7]+
          +0.003*[#   8]+
    |psi|^2 = 0.995
==== e(  21) =    11.39147 eV ==== 
     psi = 0.129*[#  23]+0.129*[#  24]+0.129*[#  26]+0.071*[#  28]+0.071*[#  29]+
          +0.071*[#  30]+0.071*[#  32]+0.071*[#  33]+0.071*[#  34]+0.034*[#   9]+
          +0.034*[#  12]+0.021*[#  10]+0.021*[#  11]+0.021*[#  13]+0.007*[#  22]+
          +0.007*[#  25]+0.006*[#   6]+0.006*[#   7]+0.006*[#   8]+0.005*[#  27]+
          +0.005*[#  31]+0.004*[#   2]+0.002*[#  19]+0.002*[#  20]+0.002*[#  21]+
    |psi|^2 = 0.996
==== e(  22) =    11.85479 eV ==== 
     psi = 0.103*[#  28]+0.103*[#  29]+0.103*[#  30]+0.103*[#  32]+0.103*[#  33]+
          +0.103*[#  34]+0.075*[#   9]+0.075*[#  12]+0.049*[#  23]+0.049*[#  24]+
          +0.049*[#  26]+0.018*[#  22]+0.018*[#  25]+0.007*[#  27]+0.007*[#  31]+
          +0.005*[#  19]+0.005*[#  20]+0.005*[#  21]+0.003*[#   2]+0.002*[#  10]+
          +0.002*[#  11]+0.002*[#  13]+0.002*[#   6]+0.002*[#   7]+0.002*[#   8]+
    |psi|^2 = 0.994
==== e(  23) =    15.49260 eV ==== 
     psi = 0.202*[#  23]+0.202*[#  24]+0.202*[#  26]+0.130*[#  22]+0.130*[#  25]+
          +0.013*[#  28]+0.013*[#  29]+0.013*[#  30]+0.013*[#  32]+0.013*[#  33]+
          +0.013*[#  34]+0.013*[#   2]+0.008*[#  27]+0.008*[#  31]+0.003*[#   6]+
          +0.003*[#   7]+0.003*[#   8]+0.002*[#  19]+0.002*[#  20]+0.002*[#  21]+
    |psi|^2 = 0.994
==== e(  24) =    15.66082 eV ==== 
     psi = 0.201*[#  23]+0.201*[#  24]+0.201*[#  26]+0.156*[#  22]+0.156*[#  25]+
          +0.012*[#  28]+0.012*[#  29]+0.012*[#  30]+0.012*[#  32]+0.012*[#  33]+
          +0.012*[#  34]+0.004*[#   2]+0.001*[#   9]+0.001*[#  12]+
    |psi|^2 = 0.997
==== e(  25) =    16.73108 eV ==== 
     psi = 0.238*[#  22]+0.238*[#  25]+0.118*[#  23]+0.118*[#  24]+0.118*[#  26]+
          +0.028*[#   2]+0.022*[#  27]+0.022*[#  31]+0.009*[#  28]+0.009*[#  29]+
          +0.009*[#  30]+0.009*[#  32]+0.009*[#  33]+0.009*[#  34]+0.006*[#   6]+
          +0.006*[#   7]+0.006*[#   8]+0.005*[#  19]+0.005*[#  20]+0.005*[#  21]+
          +0.003*[#  15]+
    |psi|^2 = 0.994
==== e(  26) =    16.95909 eV ==== 
     psi = 0.288*[#  22]+0.288*[#  25]+0.107*[#  23]+0.107*[#  24]+0.107*[#  26]+
          +0.011*[#  28]+0.011*[#  29]+0.011*[#  30]+0.011*[#  32]+0.011*[#  33]+
          +0.011*[#  34]+0.006*[#   2]+0.006*[#  27]+0.006*[#  31]+0.003*[#   6]+
          +0.003*[#   7]+0.003*[#   8]+0.001*[#  19]+0.001*[#  20]+0.001*[#  21]+
          +0.001*[#   9]+0.001*[#  12]+
    |psi|^2 = 0.995
==== e(  27) =    18.61493 eV ==== 
     psi = 0.091*[#  27]+0.091*[#  31]+0.079*[#   2]+0.062*[#  15]+0.047*[#  28]+
          +0.047*[#  29]+0.047*[#  30]+0.047*[#  32]+0.047*[#  33]+0.047*[#  34]+
          +0.046*[#   6]+0.046*[#   7]+0.046*[#   8]+0.044*[#  22]+0.044*[#  25]+
          +0.042*[#  19]+0.042*[#  20]+0.042*[#  21]+0.007*[#  14]+0.005*[#   1]+
          +0.003*[#  23]+0.003*[#  24]+0.003*[#  26]+0.002*[#   9]+0.002*[#  12]+
    |psi|^2 = 0.989
==== e(  28) =    21.91179 eV ==== 
     psi = 0.182*[#  15]+0.159*[#   2]+0.058*[#  19]+0.058*[#  20]+0.058*[#  21]+
          +0.053*[#   6]+0.053*[#   7]+0.053*[#   8]+0.035*[#  28]+0.035*[#  29]+
          +0.035*[#  30]+0.035*[#  32]+0.035*[#  33]+0.035*[#  34]+0.028*[#  27]+
          +0.028*[#  31]+0.006*[#  22]+0.006*[#  25]+0.002*[#  23]+0.002*[#  24]+
          +0.002*[#  26]+0.001*[#   9]+0.001*[#  12]+
    |psi|^2 = 0.962
==== e(  29) =    23.68766 eV ==== 
     psi = 0.177*[#   2]+0.130*[#  15]+0.076*[#  19]+0.076*[#  20]+0.076*[#  21]+
          +0.066*[#   6]+0.066*[#   7]+0.066*[#   8]+0.015*[#  28]+0.015*[#  29]+
          +0.015*[#  30]+0.015*[#  32]+0.015*[#  33]+0.015*[#  34]+0.008*[#   1]+
          +0.006*[#  27]+0.006*[#  31]+0.003*[#  14]+0.002*[#  23]+0.002*[#  24]+
          +0.002*[#  26]+0.002*[#  22]+0.002*[#  25]+
    |psi|^2 = 0.862
==== e(  30) =    24.79863 eV ==== 
     psi = 0.114*[#   6]+0.114*[#   7]+0.114*[#   8]+0.095*[#   2]+0.089*[#  19]+
          +0.089*[#  20]+0.089*[#  21]+0.053*[#  15]+0.011*[#  28]+0.011*[#  29]+
          +0.011*[#  30]+0.011*[#  32]+0.011*[#  33]+0.011*[#  34]+0.005*[#   1]+
          +0.002*[#  14]+0.002*[#  23]+0.002*[#  24]+0.002*[#  26]+0.002*[#  27]+
          +0.002*[#  31]+
    |psi|^2 = 0.850
==== e(  31) =    25.50266 eV ==== 
     psi = 0.086*[#   6]+0.086*[#   7]+0.086*[#   8]+0.073*[#  15]+0.058*[#  19]+
          +0.058*[#  20]+0.058*[#  21]+0.026*[#   2]+0.007*[#  23]+0.007*[#  24]+
          +0.007*[#  26]+0.005*[#  28]+0.005*[#  29]+0.005*[#  30]+0.005*[#  32]+
          +0.005*[#  33]+0.005*[#  34]+0.005*[#  14]+0.002*[#   1]+0.001*[#   3]+
          +0.001*[#   4]+0.001*[#   5]+
    |psi|^2 = 0.599
==== e(  32) =    28.31253 eV ==== 
     psi = 0.227*[#  15]+0.158*[#   2]+0.052*[#  19]+0.052*[#  20]+0.052*[#  21]+
          +0.045*[#   6]+0.045*[#   7]+0.045*[#   8]+0.017*[#  14]+0.014*[#   1]+
          +0.003*[#  27]+0.003*[#  31]+0.003*[#  28]+0.003*[#  29]+0.003*[#  30]+
          +0.003*[#  32]+0.003*[#  33]+0.003*[#  34]+
    |psi|^2 = 0.732
==== e(  33) =    29.60118 eV ==== 
     psi = 0.139*[#  19]+0.139*[#  20]+0.139*[#  21]+0.133*[#   6]+0.133*[#   7]+
          +0.133*[#   8]+0.011*[#  27]+0.011*[#  31]+0.004*[#  15]+0.004*[#  28]+
          +0.004*[#  29]+0.004*[#  30]+0.004*[#  32]+0.004*[#  33]+0.004*[#  34]+
          +0.002*[#   3]+0.002*[#   4]+0.002*[#   5]+0.002*[#  16]+0.002*[#  17]+
          +0.002*[#  18]+0.001*[#   2]+
    |psi|^2 = 0.880
==== e(  34) =    31.14221 eV ==== 
     psi = 0.077*[#   6]+0.077*[#   7]+0.077*[#   8]+0.077*[#  19]+0.077*[#  20]+
          +0.077*[#  21]+0.004*[#  15]+0.003*[#   2]+0.001*[#   3]+0.001*[#   4]+
          +0.001*[#   5]+0.001*[#  28]+0.001*[#  29]+0.001*[#  30]+0.001*[#  32]+
          +0.001*[#  33]+0.001*[#  34]+0.001*[#  16]+0.001*[#  17]+0.001*[#  18]+
    |psi|^2 = 0.488
==== e(  35) =    32.56877 eV ==== 
     psi = 0.057*[#  19]+0.057*[#  20]+0.057*[#  21]+0.041*[#   6]+0.041*[#   7]+
          +0.041*[#   8]+0.003*[#  15]+0.002*[#   2]+
    |psi|^2 = 0.312

 k =  -0.8333333333  0.5000000000  0.1666666667
==== e(   1) =   -76.25532 eV ==== 
     psi = 0.970*[#   1]+0.009*[#   2]+0.003*[#  19]+0.003*[#  20]+0.003*[#  21]+
          +0.002*[#   6]+0.002*[#   7]+0.002*[#   8]+
    |psi|^2 = 1.000
==== e(   2) =   -72.11498 eV ==== 
     psi = 0.971*[#  14]+0.008*[#  15]+0.003*[#   6]+0.003*[#   7]+0.003*[#   8]+
          +0.002*[#  19]+0.002*[#  20]+0.002*[#  21]+
    |psi|^2 = 1.000
==== e(   3) =   -42.52562 eV ==== 
     psi = 0.330*[#   3]+0.330*[#   4]+0.330*[#   5]+
    |psi|^2 = 0.998
==== e(   4) =   -42.48598 eV ==== 
     psi = 0.330*[#   3]+0.330*[#   4]+0.330*[#   5]+0.002*[#   6]+0.002*[#   7]+
          +0.002*[#   8]+
    |psi|^2 = 0.998
==== e(   5) =   -40.81346 eV ==== 
     psi = 0.330*[#   3]+0.330*[#   4]+0.330*[#   5]+0.001*[#   6]+0.001*[#   7]+
          +0.001*[#   8]+
    |psi|^2 = 0.998
==== e(   6) =   -38.21989 eV ==== 
     psi = 0.329*[#  16]+0.329*[#  17]+0.329*[#  18]+
    |psi|^2 = 0.998
==== e(   7) =   -38.17360 eV ==== 
     psi = 0.330*[#  16]+0.330*[#  17]+0.330*[#  18]+0.001*[#  19]+0.001*[#  20]+
          +0.001*[#  21]+
    |psi|^2 = 0.998
==== e(   8) =   -37.41575 eV ==== 
     psi = 0.330*[#  16]+0.330*[#  17]+0.330*[#  18]+
    |psi|^2 = 0.998
==== e(   9) =    -5.07973 eV ==== 
     psi = 0.391*[#  27]+0.391*[#  31]+0.033*[#  19]+0.033*[#  20]+0.033*[#  21]+
          +0.028*[#   9]+0.028*[#  12]+0.012*[#   6]+0.012*[#   7]+0.012*[#   8]+
          +0.008*[#   2]+0.007*[#  15]+0.002*[#  22]+0.002*[#  25]+
    |psi|^2 = 0.999
==== e(  10) =    -4.71289 eV ==== 
     psi = 0.414*[#  27]+0.414*[#  31]+0.032*[#   6]+0.032*[#   7]+0.032*[#   8]+
          +0.010*[#  22]+0.010*[#  25]+0.009*[#  19]+0.009*[#  20]+0.009*[#  21]+
          +0.009*[#   9]+0.009*[#  12]+0.004*[#   2]+0.003*[#  15]+
    |psi|^2 = 0.999
==== e(  11) =     5.47104 eV ==== 
     psi = 0.231*[#  10]+0.231*[#  11]+0.231*[#  13]+0.033*[#  28]+0.033*[#  29]+
          +0.033*[#  30]+0.033*[#  32]+0.033*[#  33]+0.033*[#  34]+0.016*[#   2]+
          +0.014*[#   9]+0.014*[#  12]+0.010*[#  15]+0.008*[#  19]+0.008*[#  20]+
          +0.008*[#  21]+0.007*[#   6]+0.007*[#   7]+0.007*[#   8]+0.001*[#  23]+
          +0.001*[#  24]+0.001*[#  26]+0.001*[#  27]+0.001*[#  31]+
    |psi|^2 = 1.000
==== e(  12) =     5.95402 eV ==== 
     psi = 0.180*[#   9]+0.180*[#  12]+0.070*[#  10]+0.070*[#  11]+0.070*[#  13]+
          +0.052*[#  28]+0.052*[#  29]+0.052*[#  30]+0.052*[#  32]+0.052*[#  33]+
          +0.052*[#  34]+0.024*[#  15]+0.011*[#   2]+0.010*[#   6]+0.010*[#   7]+
          +0.010*[#   8]+0.009*[#  19]+0.009*[#  20]+0.009*[#  21]+0.005*[#  23]+
          +0.005*[#  24]+0.005*[#  26]+0.002*[#  14]+
    |psi|^2 = 1.000
==== e(  13) =     6.39247 eV ==== 
     psi = 0.266*[#   9]+0.266*[#  12]+0.048*[#  28]+0.048*[#  29]+0.048*[#  30]+
          +0.048*[#  32]+0.048*[#  33]+0.048*[#  34]+0.031*[#  10]+0.031*[#  11]+
          +0.031*[#  13]+0.016*[#  19]+0.016*[#  20]+0.016*[#  21]+0.008*[#  27]+
          +0.008*[#  31]+0.005*[#  23]+0.005*[#  24]+0.005*[#  26]+0.002*[#   2]+
          +0.002*[#   6]+0.002*[#   7]+0.002*[#   8]+
    |psi|^2 = 1.000
==== e(  14) =     6.85353 eV ==== 
     psi = 0.165*[#   9]+0.165*[#  12]+0.144*[#  10]+0.144*[#  11]+0.144*[#  13]+
          +0.027*[#  28]+0.027*[#  29]+0.027*[#  30]+0.027*[#  32]+0.027*[#  33]+
          +0.027*[#  34]+0.007*[#   2]+0.007*[#  22]+0.007*[#  25]+0.007*[#   6]+
          +0.007*[#   7]+0.007*[#   8]+0.006*[#  27]+0.006*[#  31]+0.006*[#  23]+
          +0.006*[#  24]+0.006*[#  26]+
    |psi|^2 = 0.999
==== e(  15) =     7.88588 eV ==== 
     psi = 0.137*[#  10]+0.137*[#  11]+0.137*[#  13]+0.058*[#  28]+0.058*[#  29]+
          +0.058*[#  30]+0.058*[#  32]+0.058*[#  33]+0.058*[#  34]+0.056*[#   9]+
          +0.056*[#  12]+0.039*[#   2]+0.010*[#  19]+0.010*[#  20]+0.010*[#  21]+
          +0.009*[#  22]+0.009*[#  25]+0.009*[#  27]+0.009*[#  31]+0.004*[#  23]+
          +0.004*[#  24]+0.004*[#  26]+0.003*[#   6]+0.003*[#   7]+0.003*[#   8]+
    |psi|^2 = 0.998
==== e(  16) =     8.39177 eV ==== 
     psi = 0.086*[#  28]+0.086*[#  29]+0.086*[#  30]+0.086*[#  32]+0.086*[#  33]+
          +0.086*[#  34]+0.071*[#  10]+0.071*[#  11]+0.071*[#  13]+0.033*[#  15]+
          +0.027*[#   6]+0.027*[#   7]+0.027*[#   8]+0.026*[#  23]+0.026*[#  24]+
          +0.026*[#  26]+0.014*[#   9]+0.014*[#  12]+0.011*[#  22]+0.011*[#  25]+
          +0.007*[#  27]+0.007*[#  31]+0.004*[#   2]+0.003*[#  19]+0.003*[#  20]+
          +0.003*[#  21]+0.001*[#  14]+
    |psi|^2 = 0.998
==== e(  17) =     8.74788 eV ==== 
     psi = 0.091*[#  28]+0.091*[#  29]+0.091*[#  30]+0.091*[#  32]+0.091*[#  33]+
          +0.091*[#  34]+0.072*[#  10]+0.072*[#  11]+0.072*[#  13]+0.024*[#  23]+
          +0.024*[#  24]+0.024*[#  26]+0.019*[#   2]+0.016*[#   6]+0.016*[#   7]+
          +0.016*[#   8]+0.015*[#  15]+0.012*[#  22]+0.012*[#  25]+0.011*[#  19]+
          +0.011*[#  20]+0.011*[#  21]+0.011*[#   9]+0.011*[#  12]+
    |psi|^2 = 0.998
==== e(  18) =     9.90256 eV ==== 
     psi = 0.164*[#  10]+0.164*[#  11]+0.164*[#  13]+0.060*[#  28]+0.060*[#  29]+
          +0.060*[#  30]+0.060*[#  32]+0.060*[#  33]+0.060*[#  34]+0.025*[#   2]+
          +0.017*[#  22]+0.017*[#  25]+0.016*[#  23]+0.016*[#  24]+0.016*[#  26]+
          +0.007*[#   9]+0.007*[#  12]+0.004*[#  19]+0.004*[#  20]+0.004*[#  21]+
          +0.003*[#   6]+0.003*[#   7]+0.003*[#   8]+
    |psi|^2 = 0.998
==== e(  19) =    10.19014 eV ==== 
     psi = 0.124*[#  28]+0.124*[#  29]+0.124*[#  30]+0.124*[#  32]+0.124*[#  33]+
          +0.124*[#  34]+0.051*[#  10]+0.051*[#  11]+0.051*[#  13]+0.013*[#   6]+
          +0.013*[#   7]+0.013*[#   8]+0.012*[#  19]+0.012*[#  20]+0.012*[#  21]+
          +0.007*[#   2]+0.005*[#  23]+0.005*[#  24]+0.005*[#  26]+0.004*[#  15]+
    |psi|^2 = 0.997
==== e(  20) =    10.93503 eV ==== 
     psi = 0.158*[#  23]+0.158*[#  24]+0.158*[#  26]+0.064*[#   9]+0.064*[#  12]+
          +0.049*[#  28]+0.049*[#  29]+0.049*[#  30]+0.049*[#  32]+0.049*[#  33]+
          +0.049*[#  34]+0.020*[#  22]+0.020*[#  25]+0.011*[#  27]+0.011*[#  31]+
          +0.005*[#  19]+0.005*[#  20]+0.005*[#  21]+0.003*[#   6]+0.003*[#   7]+
          +0.003*[#   8]+0.002*[#  15]+0.002*[#  10]+0.002*[#  11]+0.002*[#  13]+
    |psi|^2 = 0.995
==== e(  21) =    11.22954 eV ==== 
     psi = 0.102*[#   9]+0.102*[#  12]+0.092*[#  28]+0.092*[#  29]+0.092*[#  30]+
          +0.092*[#  32]+0.092*[#  33]+0.092*[#  34]+0.027*[#  15]+0.025*[#  22]+
          +0.025*[#  25]+0.023*[#  23]+0.023*[#  24]+0.023*[#  26]+0.017*[#  10]+
          +0.017*[#  11]+0.017*[#  13]+0.008*[#  19]+0.008*[#  20]+0.008*[#  21]+
          +0.007*[#  27]+0.007*[#  31]+0.001*[#   6]+0.001*[#   7]+0.001*[#   8]+
    |psi|^2 = 0.996
==== e(  22) =    11.72171 eV ==== 
     psi = 0.087*[#  28]+0.087*[#  29]+0.087*[#  30]+0.087*[#  32]+0.087*[#  33]+
          +0.087*[#  34]+0.080*[#  23]+0.080*[#  24]+0.080*[#  26]+0.076*[#   9]+
          +0.076*[#  12]+0.010*[#  15]+0.008*[#  19]+0.008*[#  20]+0.008*[#  21]+
          +0.007*[#  27]+0.007*[#  31]+0.006*[#  22]+0.006*[#  25]+0.005*[#  10]+
          +0.005*[#  11]+0.005*[#  13]+0.003*[#   2]+0.001*[#   6]+0.001*[#   7]+
          +0.001*[#   8]+
    |psi|^2 = 0.995
==== e(  23) =    15.55821 eV ==== 
     psi = 0.213*[#  23]+0.213*[#  24]+0.213*[#  26]+0.125*[#  22]+0.125*[#  25]+
          +0.012*[#  28]+0.012*[#  29]+0.012*[#  30]+0.012*[#  32]+0.012*[#  33]+
          +0.012*[#  34]+0.006*[#   2]+0.005*[#  27]+0.005*[#  31]+0.003*[#   6]+
          +0.003*[#   7]+0.003*[#   8]+0.002*[#  15]+
    |psi|^2 = 0.995
==== e(  24) =    15.69545 eV ==== 
     psi = 0.187*[#  23]+0.187*[#  24]+0.187*[#  26]+0.184*[#  22]+0.184*[#  25]+
          +0.009*[#  28]+0.009*[#  29]+0.009*[#  30]+0.009*[#  32]+0.009*[#  33]+
          +0.009*[#  34]+0.006*[#   2]+0.001*[#  27]+0.001*[#  31]+0.001*[#   9]+
          +0.001*[#  12]+
    |psi|^2 = 0.998
==== e(  25) =    16.95741 eV ==== 
     psi = 0.298*[#  22]+0.298*[#  25]+0.091*[#  23]+0.091*[#  24]+0.091*[#  26]+
          +0.015*[#  27]+0.015*[#  31]+0.010*[#  28]+0.010*[#  29]+0.010*[#  30]+
          +0.010*[#  32]+0.010*[#  33]+0.010*[#  34]+0.007*[#   2]+0.006*[#   6]+
          +0.006*[#   7]+0.006*[#   8]+
    |psi|^2 = 0.994
==== e(  26) =    17.13396 eV ==== 
     psi = 0.248*[#  22]+0.248*[#  25]+0.138*[#  23]+0.138*[#  24]+0.138*[#  26]+
          +0.016*[#   2]+0.011*[#  28]+0.011*[#  29]+0.011*[#  30]+0.011*[#  32]+
          +0.011*[#  33]+0.011*[#  34]+0.002*[#  27]+0.002*[#  31]+
    |psi|^2 = 0.997
==== e(  27) =    20.85963 eV ==== 
     psi = 0.204*[#   2]+0.079*[#  15]+0.058*[#   6]+0.058*[#   7]+0.058*[#   8]+
          +0.046*[#  27]+0.046*[#  31]+0.044*[#  28]+0.044*[#  29]+0.044*[#  30]+
          +0.044*[#  32]+0.044*[#  33]+0.044*[#  34]+0.043*[#  19]+0.043*[#  20]+
          +0.043*[#  21]+0.015*[#  22]+0.015*[#  25]+0.001*[#   9]+0.001*[#  12]+
          +0.001*[#  14]+
    |psi|^2 = 0.977
==== e(  28) =    22.65277 eV ==== 
     psi = 0.117*[#  19]+0.117*[#  20]+0.117*[#  21]+0.115*[#   6]+0.115*[#   7]+
          +0.115*[#   8]+0.029*[#  27]+0.029*[#  31]+0.019*[#  28]+0.019*[#  29]+
          +0.019*[#  30]+0.019*[#  32]+0.019*[#  33]+0.019*[#  34]+0.004*[#  23]+
          +0.004*[#  24]+0.004*[#  26]+0.003*[#   2]+0.003*[#  15]+0.003*[#  22]+
          +0.003*[#  25]+0.001*[#  10]+0.001*[#  11]+0.001*[#  13]+
    |psi|^2 = 0.896
==== e(  29) =    22.86073 eV ==== 
     psi = 0.378*[#   2]+0.322*[#  15]+0.029*[#  28]+0.029*[#  29]+0.029*[#  30]+
          +0.029*[#  32]+0.029*[#  33]+0.029*[#  34]+0.015*[#   6]+0.015*[#   7]+
          +0.015*[#   8]+0.009*[#   1]+0.008*[#  19]+0.008*[#  20]+0.008*[#  21]+
          +0.002*[#  27]+0.002*[#  31]+0.002*[#  14]+0.002*[#  22]+0.002*[#  25]+
    |psi|^2 = 0.970
==== e(  30) =    24.34402 eV ==== 
     psi = 0.107*[#   6]+0.107*[#   7]+0.107*[#   8]+0.096*[#  19]+0.096*[#  20]+
          +0.096*[#  21]+0.033*[#   2]+0.013*[#  15]+0.012*[#  28]+0.012*[#  29]+
          +0.012*[#  30]+0.012*[#  32]+0.012*[#  33]+0.012*[#  34]+0.001*[#   1]+
          +0.001*[#  23]+0.001*[#  24]+0.001*[#  26]+
    |psi|^2 = 0.738
==== e(  31) =    24.92236 eV ==== 
     psi = 0.168*[#  15]+0.140*[#   2]+0.107*[#  19]+0.107*[#  20]+0.107*[#  21]+
          +0.042*[#   6]+0.042*[#   7]+0.042*[#   8]+0.011*[#   1]+0.011*[#  28]+
          +0.011*[#  29]+0.011*[#  30]+0.011*[#  32]+0.011*[#  33]+0.011*[#  34]+
          +0.007*[#  14]+0.004*[#  23]+0.004*[#  24]+0.004*[#  26]+0.004*[#  27]+
          +0.004*[#  31]+0.001*[#  22]+0.001*[#  25]+
    |psi|^2 = 0.864
==== e(  32) =    25.13227 eV ==== 
     psi = 0.230*[#  15]+0.113*[#   6]+0.113*[#   7]+0.113*[#   8]+0.056*[#  19]+
          +0.056*[#  20]+0.056*[#  21]+0.024*[#   2]+0.010*[#  14]+0.009*[#  28]+
          +0.009*[#  29]+0.009*[#  30]+0.009*[#  32]+0.009*[#  33]+0.009*[#  34]+
          +0.006*[#  23]+0.006*[#  24]+0.006*[#  26]+0.002*[#  27]+0.002*[#  31]+
          +0.002*[#   1]+
    |psi|^2 = 0.853
==== e(  33) =    29.33663 eV ==== 
     psi = 0.139*[#   6]+0.139*[#   7]+0.139*[#   8]+0.136*[#  19]+0.136*[#  20]+
          +0.136*[#  21]+0.013*[#  27]+0.013*[#  31]+0.003*[#  28]+0.003*[#  29]+
          +0.003*[#  30]+0.003*[#  32]+0.003*[#  33]+0.003*[#  34]+0.002*[#   3]+
          +0.002*[#   4]+0.002*[#   5]+0.001*[#  16]+0.001*[#  17]+0.001*[#  18]+
    |psi|^2 = 0.880
==== e(  34) =    30.24874 eV ==== 
     psi = 0.137*[#  19]+0.137*[#  20]+0.137*[#  21]+0.128*[#   6]+0.128*[#   7]+
[...]
          +0.008*[#   9]+0.008*[#  12]+0.003*[#  19]+0.003*[#  20]+0.003*[#  21]+
          +0.002*[#  14]+
    |psi|^2 = 0.998
==== e(  17) =     9.06238 eV ==== 
     psi = 0.132*[#  10]+0.132*[#  11]+0.132*[#  13]+0.075*[#  28]+0.075*[#  29]+
          +0.075*[#  30]+0.075*[#  32]+0.075*[#  33]+0.075*[#  34]+0.028*[#  22]+
          +0.028*[#  25]+0.014*[#   9]+0.014*[#  12]+0.007*[#   6]+0.007*[#   7]+
          +0.007*[#   8]+0.006*[#  19]+0.006*[#  20]+0.006*[#  21]+0.006*[#   2]+
          +0.005*[#  23]+0.005*[#  24]+0.005*[#  26]+0.004*[#  27]+0.004*[#  31]+
    |psi|^2 = 0.997
==== e(  18) =     9.48822 eV ==== 
     psi = 0.089*[#  28]+0.089*[#  29]+0.089*[#  30]+0.089*[#  32]+0.089*[#  33]+
          +0.089*[#  34]+0.072*[#   2]+0.056*[#  22]+0.056*[#  25]+0.049*[#  23]+
          +0.049*[#  24]+0.049*[#  26]+0.026*[#  27]+0.026*[#  31]+0.018*[#  19]+
          +0.018*[#  20]+0.018*[#  21]+0.005*[#  10]+0.005*[#  11]+0.005*[#  13]+
          +0.004*[#   1]+0.003*[#   6]+0.003*[#   7]+0.003*[#   8]+
    |psi|^2 = 0.997
==== e(  19) =    10.66966 eV ==== 
     psi = 0.095*[#  28]+0.095*[#  29]+0.095*[#  30]+0.095*[#  32]+0.095*[#  33]+
          +0.095*[#  34]+0.077*[#  22]+0.077*[#  25]+0.053*[#   9]+0.053*[#  12]+
          +0.029*[#  10]+0.029*[#  11]+0.029*[#  13]+0.012*[#  27]+0.012*[#  31]+
          +0.009*[#  23]+0.009*[#  24]+0.009*[#  26]+0.006*[#   6]+0.006*[#   7]+
          +0.006*[#   8]+0.003*[#  19]+0.003*[#  20]+0.003*[#  21]+0.001*[#   1]+
    |psi|^2 = 0.994
==== e(  20) =    10.83501 eV ==== 
     psi = 0.109*[#  28]+0.109*[#  29]+0.109*[#  30]+0.109*[#  32]+0.109*[#  33]+
          +0.109*[#  34]+0.079*[#  23]+0.079*[#  24]+0.079*[#  26]+0.018*[#   9]+
          +0.018*[#  12]+0.016*[#  22]+0.016*[#  25]+0.007*[#  19]+0.007*[#  20]+
          +0.007*[#  21]+0.006*[#  15]+0.002*[#   6]+0.002*[#   7]+0.002*[#   8]+
    |psi|^2 = 0.997
==== e(  21) =    11.85544 eV ==== 
     psi = 0.150*[#  10]+0.150*[#  11]+0.150*[#  13]+0.080*[#  28]+0.080*[#  29]+
          +0.080*[#  30]+0.080*[#  32]+0.080*[#  33]+0.080*[#  34]+0.017*[#  22]+
          +0.017*[#  25]+0.006*[#   6]+0.006*[#   7]+0.006*[#   8]+0.004*[#  27]+
          +0.004*[#  31]+0.002*[#   2]+
    |psi|^2 = 0.996
==== e(  22) =    11.85614 eV ==== 
     psi = 0.120*[#  28]+0.120*[#  29]+0.120*[#  30]+0.120*[#  32]+0.120*[#  33]+
          +0.120*[#  34]+0.090*[#  22]+0.090*[#  25]+0.014*[#  23]+0.014*[#  24]+
          +0.014*[#  26]+0.008*[#   9]+0.008*[#  12]+0.008*[#   6]+0.008*[#   7]+
          +0.008*[#   8]+0.004*[#  15]+0.001*[#  10]+0.001*[#  11]+0.001*[#  13]+
    |psi|^2 = 0.994
==== e(  23) =    15.29073 eV ==== 
     psi = 0.191*[#  10]+0.191*[#  11]+0.191*[#  13]+0.155*[#   9]+0.155*[#  12]+
          +0.020*[#  15]+0.018*[#  27]+0.018*[#  31]+0.006*[#  19]+0.006*[#  20]+
          +0.006*[#  21]+0.003*[#  28]+0.003*[#  29]+0.003*[#  30]+0.003*[#  32]+
          +0.003*[#  33]+0.003*[#  34]+0.002*[#  23]+0.002*[#  24]+0.002*[#  26]+
          +0.002*[#   6]+0.002*[#   7]+0.002*[#   8]+
    |psi|^2 = 0.991
==== e(  24) =    15.68251 eV ==== 
     psi = 0.199*[#  10]+0.199*[#  11]+0.199*[#  13]+0.161*[#   9]+0.161*[#  12]+
          +0.011*[#  28]+0.011*[#  29]+0.011*[#  30]+0.011*[#  32]+0.011*[#  33]+
          +0.011*[#  34]+0.002*[#  27]+0.002*[#  31]+0.001*[#  19]+0.001*[#  20]+
          +0.001*[#  21]+
    |psi|^2 = 0.997
==== e(  25) =    16.69364 eV ==== 
     psi = 0.241*[#   9]+0.241*[#  12]+0.121*[#  10]+0.121*[#  11]+0.121*[#  13]+
          +0.020*[#  15]+0.020*[#  27]+0.020*[#  31]+0.010*[#  28]+0.010*[#  29]+
          +0.010*[#  30]+0.010*[#  32]+0.010*[#  33]+0.010*[#  34]+0.004*[#  19]+
          +0.004*[#  20]+0.004*[#  21]+0.004*[#   6]+0.004*[#   7]+0.004*[#   8]+
    |psi|^2 = 0.992
==== e(  26) =    17.04525 eV ==== 
     psi = 0.264*[#   9]+0.264*[#  12]+0.127*[#  10]+0.127*[#  11]+0.127*[#  13]+
          +0.011*[#  28]+0.011*[#  29]+0.011*[#  30]+0.011*[#  32]+0.011*[#  33]+
          +0.011*[#  34]+0.004*[#  27]+0.004*[#  31]+0.003*[#  19]+0.003*[#  20]+
          +0.003*[#  21]+
    |psi|^2 = 0.995
==== e(  27) =    19.86099 eV ==== 
     psi = 0.211*[#  15]+0.055*[#  27]+0.055*[#  31]+0.051*[#  28]+0.051*[#  29]+
          +0.051*[#  30]+0.051*[#  32]+0.051*[#  33]+0.051*[#  34]+0.050*[#  19]+
          +0.050*[#  20]+0.050*[#  21]+0.046*[#   9]+0.046*[#  12]+0.035*[#   6]+
          +0.035*[#   7]+0.035*[#   8]+0.003*[#  14]+
    |psi|^2 = 0.984
==== e(  28) =    20.14976 eV ==== 
     psi = 0.212*[#   2]+0.073*[#  27]+0.073*[#  31]+0.060*[#   6]+0.060*[#   7]+
          +0.060*[#   8]+0.047*[#  19]+0.047*[#  20]+0.047*[#  21]+0.046*[#  28]+
          +0.046*[#  29]+0.046*[#  30]+0.046*[#  32]+0.046*[#  33]+0.046*[#  34]+
          +0.006*[#   1]+0.005*[#  22]+0.005*[#  25]+0.004*[#   9]+0.004*[#  12]+
    |psi|^2 = 0.981
==== e(  29) =    24.70524 eV ==== 
     psi = 0.086*[#  19]+0.086*[#  20]+0.086*[#  21]+0.077*[#   2]+0.058*[#   6]+
          +0.058*[#   7]+0.058*[#   8]+0.008*[#  28]+0.008*[#  29]+0.008*[#  30]+
          +0.008*[#  32]+0.008*[#  33]+0.008*[#  34]+0.004*[#   1]+0.003*[#  10]+
          +0.003*[#  11]+0.003*[#  13]+0.001*[#  16]+0.001*[#  17]+0.001*[#  18]+
    |psi|^2 = 0.574
==== e(  30) =    24.95508 eV ==== 
     psi = 0.224*[#  15]+0.088*[#  19]+0.088*[#  20]+0.088*[#  21]+0.038*[#   6]+
          +0.038*[#   7]+0.038*[#   8]+0.013*[#  14]+0.007*[#  28]+0.007*[#  29]+
          +0.007*[#  30]+0.007*[#  32]+0.007*[#  33]+0.007*[#  34]+0.006*[#  10]+
          +0.006*[#  11]+0.006*[#  13]+0.002*[#  27]+0.002*[#  31]+0.001*[#  23]+
          +0.001*[#  24]+0.001*[#  26]+
    |psi|^2 = 0.684
==== e(  31) =    26.39373 eV ==== 
     psi = 0.302*[#  15]+0.128*[#   6]+0.128*[#   7]+0.128*[#   8]+0.026*[#  14]+
          +0.007*[#  19]+0.007*[#  20]+0.007*[#  21]+0.004*[#  27]+0.004*[#  31]+
          +0.004*[#  28]+0.004*[#  29]+0.004*[#  30]+0.004*[#  32]+0.004*[#  33]+
          +0.004*[#  34]+0.002*[#  10]+0.002*[#  11]+0.002*[#  13]+
    |psi|^2 = 0.771
==== e(  32) =    26.66559 eV ==== 
     psi = 0.482*[#   2]+0.087*[#  19]+0.087*[#  20]+0.087*[#  21]+0.031*[#   1]+
          +0.019*[#   6]+0.019*[#   7]+0.019*[#   8]+0.003*[#  28]+0.003*[#  29]+
          +0.003*[#  30]+0.003*[#  32]+0.003*[#  33]+0.003*[#  34]+0.003*[#  27]+
          +0.003*[#  31]+
    |psi|^2 = 0.862
==== e(  33) =    30.25428 eV ==== 
     psi = 0.181*[#  19]+0.181*[#  20]+0.181*[#  21]+0.057*[#   6]+0.057*[#   7]+
          +0.057*[#   8]+0.005*[#  28]+0.005*[#  29]+0.005*[#  30]+0.005*[#  32]+
          +0.005*[#  33]+0.005*[#  34]+0.002*[#  16]+0.002*[#  17]+0.002*[#  18]+
    |psi|^2 = 0.761
==== e(  34) =    30.54938 eV ==== 
     psi = 0.170*[#   6]+0.170*[#   7]+0.170*[#   8]+0.051*[#  19]+0.051*[#  20]+
          +0.051*[#  21]+0.005*[#  28]+0.005*[#  29]+0.005*[#  30]+0.005*[#  32]+
          +0.005*[#  33]+0.005*[#  34]+0.002*[#   3]+0.002*[#   4]+0.002*[#   5]+
          +0.001*[#  15]+0.001*[#  27]+0.001*[#  31]+
    |psi|^2 = 0.708
==== e(  35) =    32.01753 eV ==== 
     psi = 0.083*[#   6]+0.083*[#   7]+0.083*[#   8]+0.005*[#  19]+0.005*[#  20]+
          +0.005*[#  21]+0.003*[#  28]+0.003*[#  29]+0.003*[#  30]+0.003*[#  32]+
          +0.003*[#  33]+0.003*[#  34]+
    |psi|^2 = 0.288

 k =  -0.2500000000 -0.2500000000 -0.2500000000
==== e(   1) =   -76.25836 eV ==== 
     psi = 0.906*[#  14]+0.029*[#   6]+0.029*[#   7]+0.029*[#   8]+0.004*[#  15]+
    |psi|^2 = 1.000
==== e(   2) =   -72.11732 eV ==== 
     psi = 0.907*[#   1]+0.029*[#  19]+0.029*[#  20]+0.029*[#  21]+0.003*[#   2]+
    |psi|^2 = 1.000
==== e(   3) =   -42.42856 eV ==== 
     psi = 0.328*[#  16]+0.328*[#  17]+0.328*[#  18]+0.005*[#  19]+0.005*[#  20]+
          +0.005*[#  21]+
    |psi|^2 = 0.999
==== e(   4) =   -42.42856 eV ==== 
     psi = 0.328*[#  16]+0.328*[#  17]+0.328*[#  18]+0.005*[#  19]+0.005*[#  20]+
          +0.005*[#  21]+
    |psi|^2 = 0.999
==== e(   5) =   -40.83535 eV ==== 
     psi = 0.329*[#  16]+0.329*[#  17]+0.329*[#  18]+0.003*[#   2]+0.002*[#  19]+
          +0.002*[#  20]+0.002*[#  21]+
    |psi|^2 = 0.998
==== e(   6) =   -38.12021 eV ==== 
     psi = 0.328*[#   3]+0.328*[#   4]+0.328*[#   5]+0.004*[#   6]+0.004*[#   7]+
          +0.004*[#   8]+
    |psi|^2 = 0.999
==== e(   7) =   -38.12021 eV ==== 
     psi = 0.328*[#   3]+0.328*[#   4]+0.328*[#   5]+0.004*[#   6]+0.004*[#   7]+
          +0.004*[#   8]+
    |psi|^2 = 0.999
==== e(   8) =   -37.43087 eV ==== 
     psi = 0.329*[#   3]+0.329*[#   4]+0.329*[#   5]+0.003*[#  15]+0.002*[#   6]+
          +0.002*[#   7]+0.002*[#   8]+
    |psi|^2 = 0.998
==== e(   9) =    -5.41693 eV ==== 
     psi = 0.315*[#  27]+0.315*[#  31]+0.089*[#  15]+0.087*[#   6]+0.087*[#   7]+
          +0.087*[#   8]+0.014*[#  14]+0.002*[#   3]+0.002*[#   4]+0.002*[#   5]+
    |psi|^2 = 1.000
==== e(  10) =    -5.37083 eV ==== 
     psi = 0.319*[#  27]+0.319*[#  31]+0.087*[#  19]+0.087*[#  20]+0.087*[#  21]+
          +0.083*[#   2]+0.014*[#   1]+0.001*[#  16]+0.001*[#  17]+0.001*[#  18]+
    |psi|^2 = 1.000
==== e(  11) =     5.94474 eV ==== 
     psi = 0.253*[#  22]+0.253*[#  25]+0.116*[#  23]+0.116*[#  24]+0.116*[#  26]+
          +0.024*[#  28]+0.024*[#  29]+0.024*[#  30]+0.024*[#  32]+0.024*[#  33]+
          +0.024*[#  34]+
    |psi|^2 = 1.000
==== e(  12) =     5.94476 eV ==== 
     psi = 0.253*[#  22]+0.253*[#  25]+0.116*[#  23]+0.116*[#  24]+0.116*[#  26]+
          +0.024*[#  28]+0.024*[#  29]+0.024*[#  30]+0.024*[#  32]+0.024*[#  33]+
          +0.024*[#  34]+
    |psi|^2 = 1.000
==== e(  13) =     6.51379 eV ==== 
     psi = 0.173*[#  23]+0.173*[#  24]+0.173*[#  26]+0.093*[#  15]+0.057*[#  28]+
          +0.057*[#  29]+0.057*[#  30]+0.057*[#  32]+0.057*[#  33]+0.057*[#  34]+
          +0.020*[#  27]+0.020*[#  31]+0.003*[#  14]+0.001*[#   6]+0.001*[#   7]+
          +0.001*[#   8]+
    |psi|^2 = 0.998
==== e(  14) =     7.23799 eV ==== 
     psi = 0.116*[#  10]+0.116*[#  11]+0.116*[#  13]+0.115*[#   2]+0.080*[#  28]+
          +0.080*[#  29]+0.080*[#  30]+0.080*[#  32]+0.080*[#  33]+0.080*[#  34]+
          +0.021*[#  27]+0.021*[#  31]+0.004*[#   1]+0.002*[#  19]+0.002*[#  20]+
          +0.002*[#  21]+
    |psi|^2 = 0.997
==== e(  15) =     7.31605 eV ==== 
     psi = 0.213*[#  23]+0.213*[#  24]+0.213*[#  26]+0.163*[#  22]+0.163*[#  25]+
          +0.005*[#  28]+0.005*[#  29]+0.005*[#  30]+0.005*[#  32]+0.005*[#  33]+
          +0.005*[#  34]+
    |psi|^2 = 1.000
==== e(  16) =     7.31607 eV ==== 
     psi = 0.213*[#  23]+0.213*[#  24]+0.213*[#  26]+0.163*[#  22]+0.163*[#  25]+
          +0.005*[#  28]+0.005*[#  29]+0.005*[#  30]+0.005*[#  32]+0.005*[#  33]+
          +0.005*[#  34]+
    |psi|^2 = 1.000
==== e(  17) =    10.18576 eV ==== 
     psi = 0.135*[#  28]+0.135*[#  29]+0.135*[#  30]+0.135*[#  32]+0.135*[#  33]+
          +0.135*[#  34]+0.076*[#   9]+0.076*[#  12]+0.009*[#  10]+0.009*[#  11]+
          +0.009*[#  13]+0.002*[#  19]+0.002*[#  20]+0.002*[#  21]+
    |psi|^2 = 0.995
==== e(  18) =    10.18576 eV ==== 
     psi = 0.135*[#  28]+0.135*[#  29]+0.135*[#  30]+0.135*[#  32]+0.135*[#  33]+
          +0.135*[#  34]+0.076*[#   9]+0.076*[#  12]+0.009*[#  10]+0.009*[#  11]+
          +0.009*[#  13]+0.002*[#  19]+0.002*[#  20]+0.002*[#  21]+
    |psi|^2 = 0.995
==== e(  19) =    10.24477 eV ==== 
     psi = 0.158*[#  23]+0.158*[#  24]+0.158*[#  26]+0.078*[#  15]+0.062*[#  28]+
          +0.062*[#  29]+0.062*[#  30]+0.062*[#  32]+0.062*[#  33]+0.062*[#  34]+
          +0.025*[#  27]+0.025*[#  31]+0.008*[#   6]+0.008*[#   7]+0.008*[#   8]+
          +0.003*[#  14]+
    |psi|^2 = 0.997
==== e(  20) =    11.29634 eV ==== 
     psi = 0.212*[#  10]+0.212*[#  11]+0.212*[#  13]+0.043*[#  28]+0.043*[#  29]+
          +0.043*[#  30]+0.043*[#  32]+0.043*[#  33]+0.043*[#  34]+0.040*[#   2]+
          +0.016*[#  27]+0.016*[#  31]+0.008*[#  19]+0.008*[#  20]+0.008*[#  21]+
          +0.003*[#   1]+
    |psi|^2 = 0.995
==== e(  21) =    12.26445 eV ==== 
     psi = 0.135*[#  28]+0.135*[#  29]+0.135*[#  30]+0.135*[#  32]+0.135*[#  33]+
          +0.135*[#  34]+0.083*[#  22]+0.083*[#  25]+0.003*[#  23]+0.003*[#  24]+
          +0.003*[#  26]+0.003*[#   6]+0.003*[#   7]+0.003*[#   8]+
    |psi|^2 = 0.993
==== e(  22) =    12.26445 eV ==== 
     psi = 0.135*[#  28]+0.135*[#  29]+0.135*[#  30]+0.135*[#  32]+0.135*[#  33]+
          +0.135*[#  34]+0.083*[#  22]+0.083*[#  25]+0.003*[#  23]+0.003*[#  24]+
          +0.003*[#  26]+0.003*[#   6]+0.003*[#   7]+0.003*[#   8]+
    |psi|^2 = 0.993
==== e(  23) =    15.65082 eV ==== 
     psi = 0.236*[#  10]+0.236*[#  11]+0.236*[#  13]+0.087*[#   9]+0.087*[#  12]+
          +0.019*[#  28]+0.019*[#  29]+0.019*[#  30]+0.019*[#  32]+0.019*[#  33]+
          +0.019*[#  34]+
    |psi|^2 = 0.996
==== e(  24) =    15.65082 eV ==== 
     psi = 0.236*[#  10]+0.236*[#  11]+0.236*[#  13]+0.087*[#   9]+0.087*[#  12]+
          +0.019*[#  28]+0.019*[#  29]+0.019*[#  30]+0.019*[#  32]+0.019*[#  33]+
          +0.019*[#  34]+
    |psi|^2 = 0.996
==== e(  25) =    16.70925 eV ==== 
     psi = 0.333*[#   9]+0.333*[#  12]+0.084*[#  10]+0.084*[#  11]+0.084*[#  13]+
          +0.011*[#  28]+0.011*[#  29]+0.011*[#  30]+0.011*[#  32]+0.011*[#  33]+
          +0.011*[#  34]+0.004*[#  19]+0.004*[#  20]+0.004*[#  21]+
    |psi|^2 = 0.994
==== e(  26) =    16.70925 eV ==== 
     psi = 0.333*[#   9]+0.333*[#  12]+0.084*[#  10]+0.084*[#  11]+0.084*[#  13]+
          +0.011*[#  28]+0.011*[#  29]+0.011*[#  30]+0.011*[#  32]+0.011*[#  33]+
          +0.011*[#  34]+0.004*[#  19]+0.004*[#  20]+0.004*[#  21]+
    |psi|^2 = 0.994
==== e(  27) =    17.54355 eV ==== 
     psi = 0.175*[#  15]+0.129*[#  27]+0.129*[#  31]+0.096*[#   6]+0.096*[#   7]+
          +0.096*[#   8]+0.041*[#  28]+0.041*[#  29]+0.041*[#  30]+0.041*[#  32]+
          +0.041*[#  33]+0.041*[#  34]+0.016*[#  14]+0.002*[#   3]+0.002*[#   4]+
          +0.002*[#   5]+
    |psi|^2 = 0.990
==== e(  28) =    17.93324 eV ==== 
     psi = 0.153*[#   2]+0.135*[#  27]+0.135*[#  31]+0.109*[#  19]+0.109*[#  20]+
          +0.109*[#  21]+0.035*[#  28]+0.035*[#  29]+0.035*[#  30]+0.035*[#  32]+
          +0.035*[#  33]+0.035*[#  34]+0.021*[#   1]+0.002*[#  16]+0.002*[#  17]+
          +0.002*[#  18]+
    |psi|^2 = 0.988
==== e(  29) =    25.41642 eV ==== 
     psi = 0.333*[#  15]+0.056*[#   6]+0.056*[#   7]+0.056*[#   8]+0.032*[#  14]+
          +0.004*[#  28]+0.004*[#  29]+0.004*[#  30]+0.004*[#  32]+0.004*[#  33]+
          +0.004*[#  34]+0.003*[#  27]+0.003*[#  31]+0.001*[#  23]+0.001*[#  24]+
          +0.001*[#  26]+
    |psi|^2 = 0.571
==== e(  30) =    25.48843 eV ==== 
     psi = 0.364*[#   2]+0.048*[#  19]+0.048*[#  20]+0.048*[#  21]+0.028*[#   1]+
          +0.005*[#  28]+0.005*[#  29]+0.005*[#  30]+0.005*[#  32]+0.005*[#  33]+
          +0.005*[#  34]+0.003*[#  10]+0.003*[#  11]+0.003*[#  13]+0.001*[#  27]+
          +0.001*[#  31]+
    |psi|^2 = 0.577
==== e(  31) =    30.49116 eV ==== 
     psi = 0.141*[#   6]+0.141*[#   7]+0.141*[#   8]+0.003*[#   3]+0.003*[#   4]+
          +0.003*[#   5]+
    |psi|^2 = 0.437
==== e(  32) =    30.49116 eV ==== 
     psi = 0.141*[#   6]+0.141*[#   7]+0.141*[#   8]+0.003*[#   3]+0.003*[#   4]+
          +0.003*[#   5]+
    |psi|^2 = 0.437
==== e(  33) =    30.70952 eV ==== 
     psi = 0.169*[#  19]+0.169*[#  20]+0.169*[#  21]+0.004*[#  10]+0.004*[#  11]+
          +0.004*[#  13]+0.004*[#  16]+0.004*[#  17]+0.004*[#  18]+0.002*[#   9]+
          +0.002*[#  12]+
    |psi|^2 = 0.537
==== e(  34) =    30.70952 eV ==== 
     psi = 0.169*[#  19]+0.169*[#  20]+0.169*[#  21]+0.004*[#  10]+0.004*[#  11]+
          +0.004*[#  13]+0.004*[#  16]+0.004*[#  17]+0.004*[#  18]+0.002*[#   9]+
          +0.002*[#  12]+
    |psi|^2 = 0.537
==== e(  35) =    34.21261 eV ==== 
     psi = 0.140*[#  15]+0.029*[#   6]+0.029*[#   7]+0.029*[#   8]+0.014*[#  14]+
          +0.002*[#  27]+0.002*[#  31]+0.001*[#  28]+0.001*[#  29]+0.001*[#  30]+
          +0.001*[#  32]+0.001*[#  33]+0.001*[#  34]+
    |psi|^2 = 0.255

Lowdin Charges: 

           1           2   1.14558848984952        3.40428321122530     
   4.96881269999198     
           2           2   1.13344654160968        3.40006956330390     
   1.32782525235906     
     Atom #   1: total charge =  15.3800, s =  2.2790, p =  6.8044, d =  6.2966, 
                 spin up      =   9.5187, s =  1.1456, 
                 spin up      =   9.5187, p =  3.4043, pz=  1.1348, px=  1.1348, py=  1.1348, 
                 spin up      =   9.5187, d =  4.9688, dz2=  0.9915, dxz=  0.9952, dyz=  0.9952, dx2-y2=  0.9915, dxy=  0.9952, 
                 spin down    =   5.8613, s =  1.1334, 
                 spin down    =   5.8613, p =  3.4001, pz=  1.1334, px=  1.1334, py=  1.1334, 
                 spin down    =   5.8613, d =  1.3278, dz2=  0.1374, dxz=  0.3510, dyz=  0.3510, dx2-y2=  0.1374, dxy=  0.3510, 
                 polarization =   3.6573, s =  0.0121, p =  0.0042, d =  3.6410, 
           1           2   1.13344654709402        3.40006957545600     
   1.32782522841772     
           2           2   1.14558848187129        3.40428319752871     
   4.96881269516316     
     Atom #   2: total charge =  15.3800, s =  2.2790, p =  6.8044, d =  6.2966, 
                 spin up      =   5.8613, s =  1.1334, 
                 spin up      =   5.8613, p =  3.4001, pz=  1.1334, px=  1.1334, py=  1.1334, 
                 spin up      =   5.8613, d =  1.3278, dz2=  0.1374, dxz=  0.3510, dyz=  0.3510, dx2-y2=  0.1374, dxy=  0.3510, 
                 spin down    =   9.5187, s =  1.1456, 
                 spin down    =   9.5187, p =  3.4043, pz=  1.1348, px=  1.1348, py=  1.1348, 
                 spin down    =   9.5187, d =  4.9688, dz2=  0.9915, dxz=  0.9952, dyz=  0.9952, dx2-y2=  0.9915, dxy=  0.9952, 
                 polarization =  -3.6573, s = -0.0121, p = -0.0042, d = -3.6410, 
           1           2  0.826081194665219        2.46349351299013     
  0.000000000000000E+000
           2           2  0.826081196902434        2.46349352333941     
  0.000000000000000E+000
     Atom #   3: total charge =   6.5791, s =  1.6522, p =  4.9270, d =  0.0000, 
                 spin up      =   3.2896, s =  0.8261, 
                 spin up      =   3.2896, p =  2.4635, pz=  0.8212, px=  0.8212, py=  0.8212, 
                 spin up      =   3.2896, d =  0.0000, dz2=  0.0000, dxz=  0.0000, dyz=  0.0000, dx2-y2=  0.0000, dxy=  0.0000, 
                 spin down    =   3.2896, s =  0.8261, 
                 spin down    =   3.2896, p =  2.4635, pz=  0.8212, px=  0.8212, py=  0.8212, 
                 spin down    =   3.2896, d =  0.0000, dz2=  0.0000, dxz=  0.0000, dyz=  0.0000, dx2-y2=  0.0000, dxy=  0.0000, 
                 polarization =  -0.0000, s = -0.0000, p = -0.0000, d =  0.0000, 
           1           2  0.826081194665219        2.46349351299013     
  0.000000000000000E+000
           2           2  0.826081196902434        2.46349352333941     
  0.000000000000000E+000
     Atom #   4: total charge =   6.5791, s =  1.6522, p =  4.9270, d =  0.0000, 
                 spin up      =   3.2896, s =  0.8261, 
                 spin up      =   3.2896, p =  2.4635, pz=  0.8212, px=  0.8212, py=  0.8212, 
                 spin up      =   3.2896, d =  0.0000, dz2=  0.0000, dxz=  0.0000, dyz=  0.0000, dx2-y2=  0.0000, dxy=  0.0000, 
                 spin down    =   3.2896, s =  0.8261, 
                 spin down    =   3.2896, p =  2.4635, pz=  0.8212, px=  0.8212, py=  0.8212, 
                 spin down    =   3.2896, d =  0.0000, dz2=  0.0000, dxz=  0.0000, dyz=  0.0000, dx2-y2=  0.0000, dxy=  0.0000, 
                 polarization =  -0.0000, s = -0.0000, p = -0.0000, d =  0.0000, 
     Spilling Parameter:   0.0019
 
     PROJWFC      :      3.43s CPU      3.73s WALL

 
   This run was terminated on:  17: 4: 5   3Sep2019            

=------------------------------------------------------------------------------=
   JOB DONE.
=------------------------------------------------------------------------------=
