
     Program PROJWFC v.6.4.1 starts on  3Sep2019 at 16:21:49 

     This program is part of the open-source Quantum ESPRESSO suite
     for quantum simulation of materials; please cite
         "P. Giannozzi et al., J. Phys.:Condens. Matter 21 395502 (2009);
         "P. Giannozzi et al., J. Phys.:Condens. Matter 29 465901 (2017);
          URL http://www.quantum-espresso.org", 
     in publications or presentations arising from this work. More details at
     http://www.quantum-espresso.org/quote

     Parallel version (MPI), running on     2 processors

     MPI processes distributed on     1 nodes
     R & G space division:  proc/nbgrp/npool/nimage =       2

     Reading data from directory:
     ./tmp/FeO.save/
     Message from routine volume:
     axis vectors are left-handed
     Message from routine volume:
     axis vectors are left-handed
     Message from routine read_upf::
     Pseudo file Fe.pbesol-spn-kjpaw_psl.0.2.1.UPF has been fixed on the fly.
To avoid this message in the future, permanently fix 
 your pseudo files following these instructions: 
https://gitlab.com/QEF/q-e/blob/master/upftools/how_to_fix_upf.md
     Message from routine read_upf::
     Pseudo file Fe.pbesol-spn-kjpaw_psl.0.2.1.UPF has been fixed on the fly.
To avoid this message in the future, permanently fix 
 your pseudo files following these instructions: 
https://gitlab.com/QEF/q-e/blob/master/upftools/how_to_fix_upf.md
     Message from routine read_upf::
     Pseudo file O.pbesol-n-kjpaw_psl.0.1.UPF has been fixed on the fly.
To avoid this message in the future, permanently fix 
 your pseudo files following these instructions: 
https://gitlab.com/QEF/q-e/blob/master/upftools/how_to_fix_upf.md

     IMPORTANT: XC functional enforced from input :
     Exchange-correlation      = PBESOL ( 1  4 10  8 0 0)
     Any further DFT definition will be discarded
     Please, verify this is what you really want

               file Fe.pbesol-spn-kjpaw_psl.0.2.1.UPF: wavefunction(s)  3D renormalized
               file Fe.pbesol-spn-kjpaw_psl.0.2.1.UPF: wavefunction(s)  3D renormalized
               file O.pbesol-n-kjpaw_psl.0.1.UPF: wavefunction(s)  2P renormalized
 
     Parallelization info
     --------------------
     sticks:   dense  smooth     PW     G-vecs:    dense   smooth      PW
     Min         530     269     94                 8627     3055     636
     Max         531     270     95                 8628     3056     637
     Sum        1061     539    189                17255     6111    1273
 
     Generating pointlists ...
     new r_m :   0.2063 (alat units)  1.6892 (a.u.) for type    1
     new r_m :   0.2063 (alat units)  1.6892 (a.u.) for type    2
     new r_m :   0.2063 (alat units)  1.6892 (a.u.) for type    3

     Check: negative core charge=   -0.000246

     Gaussian broadening (read from input): ngauss,degauss=   0    0.005000


     Calling projwave .... 

     Atomic states used for projection
     (read from pseudopotential files):

     state #   1: atom   1 (Fe1), wfc  1 (l=0 m= 1)
     state #   2: atom   1 (Fe1), wfc  2 (l=0 m= 1)
     state #   3: atom   1 (Fe1), wfc  3 (l=1 m= 1)
     state #   4: atom   1 (Fe1), wfc  3 (l=1 m= 2)
     state #   5: atom   1 (Fe1), wfc  3 (l=1 m= 3)
     state #   6: atom   1 (Fe1), wfc  4 (l=1 m= 1)
     state #   7: atom   1 (Fe1), wfc  4 (l=1 m= 2)
     state #   8: atom   1 (Fe1), wfc  4 (l=1 m= 3)
     state #   9: atom   1 (Fe1), wfc  5 (l=2 m= 1)
     state #  10: atom   1 (Fe1), wfc  5 (l=2 m= 2)
     state #  11: atom   1 (Fe1), wfc  5 (l=2 m= 3)
     state #  12: atom   1 (Fe1), wfc  5 (l=2 m= 4)
     state #  13: atom   1 (Fe1), wfc  5 (l=2 m= 5)
     state #  14: atom   2 (Fe2), wfc  1 (l=0 m= 1)
     state #  15: atom   2 (Fe2), wfc  2 (l=0 m= 1)
     state #  16: atom   2 (Fe2), wfc  3 (l=1 m= 1)
     state #  17: atom   2 (Fe2), wfc  3 (l=1 m= 2)
     state #  18: atom   2 (Fe2), wfc  3 (l=1 m= 3)
     state #  19: atom   2 (Fe2), wfc  4 (l=1 m= 1)
     state #  20: atom   2 (Fe2), wfc  4 (l=1 m= 2)
     state #  21: atom   2 (Fe2), wfc  4 (l=1 m= 3)
     state #  22: atom   2 (Fe2), wfc  5 (l=2 m= 1)
     state #  23: atom   2 (Fe2), wfc  5 (l=2 m= 2)
     state #  24: atom   2 (Fe2), wfc  5 (l=2 m= 3)
     state #  25: atom   2 (Fe2), wfc  5 (l=2 m= 4)
     state #  26: atom   2 (Fe2), wfc  5 (l=2 m= 5)
     state #  27: atom   3 (O  ), wfc  1 (l=0 m= 1)
     state #  28: atom   3 (O  ), wfc  2 (l=1 m= 1)
     state #  29: atom   3 (O  ), wfc  2 (l=1 m= 2)
     state #  30: atom   3 (O  ), wfc  2 (l=1 m= 3)
     state #  31: atom   4 (O  ), wfc  1 (l=0 m= 1)
     state #  32: atom   4 (O  ), wfc  2 (l=1 m= 1)
     state #  33: atom   4 (O  ), wfc  2 (l=1 m= 2)
     state #  34: atom   4 (O  ), wfc  2 (l=1 m= 3)

 k =   0.0000000000  0.0000000000  0.0000000000
==== e(   1) =   -76.41654 eV ==== 
     psi = 0.980*[#   1]+0.011*[#  15]+0.003*[#   2]+
    |psi|^2 = 1.000
==== e(   2) =   -72.29579 eV ==== 
     psi = 0.979*[#  14]+0.011*[#   2]+0.003*[#  15]+
    |psi|^2 = 1.000
==== e(   3) =   -42.17429 eV ==== 
     psi = 0.327*[#   3]+0.327*[#   4]+0.327*[#   5]+0.005*[#   6]+0.005*[#   7]+
          +0.005*[#   8]+
    |psi|^2 = 0.999
==== e(   4) =   -42.17429 eV ==== 
     psi = 0.327*[#   3]+0.327*[#   4]+0.327*[#   5]+0.005*[#   6]+0.005*[#   7]+
          +0.005*[#   8]+
    |psi|^2 = 0.999
==== e(   5) =   -41.77168 eV ==== 
     psi = 0.326*[#   3]+0.326*[#   4]+0.326*[#   5]+0.006*[#  19]+0.006*[#  20]+
          +0.006*[#  21]+
    |psi|^2 = 0.999
==== e(   6) =   -38.10508 eV ==== 
     psi = 0.328*[#  16]+0.328*[#  17]+0.328*[#  18]+0.004*[#  19]+0.004*[#  20]+
          +0.004*[#  21]+
    |psi|^2 = 0.999
==== e(   7) =   -38.10508 eV ==== 
     psi = 0.328*[#  16]+0.328*[#  17]+0.328*[#  18]+0.004*[#  19]+0.004*[#  20]+
          +0.004*[#  21]+
    |psi|^2 = 0.999
==== e(   8) =   -37.94873 eV ==== 
     psi = 0.326*[#  16]+0.326*[#  17]+0.326*[#  18]+0.006*[#   6]+0.006*[#   7]+
          +0.006*[#   8]+
    |psi|^2 = 0.998
==== e(   9) =    -6.13357 eV ==== 
     psi = 0.313*[#  27]+0.313*[#  31]+0.185*[#   2]+0.178*[#  15]+0.006*[#  14]+
          +0.005*[#   1]+
    |psi|^2 = 1.000
==== e(  10) =    -4.90550 eV ==== 
     psi = 0.387*[#  27]+0.387*[#  31]+0.036*[#   6]+0.036*[#   7]+0.036*[#   8]+
          +0.036*[#  19]+0.036*[#  20]+0.036*[#  21]+0.001*[#  16]+0.001*[#  17]+
          +0.001*[#  18]+0.001*[#   3]+0.001*[#   4]+0.001*[#   5]+
    |psi|^2 = 1.000
==== e(  11) =     4.80296 eV ==== 
     psi = 0.139*[#  10]+0.139*[#  11]+0.139*[#  13]+0.079*[#   2]+0.074*[#  15]+
          +0.067*[#  28]+0.067*[#  29]+0.067*[#  30]+0.067*[#  32]+0.067*[#  33]+
          +0.067*[#  34]+0.009*[#  23]+0.009*[#  24]+0.009*[#  26]+0.002*[#   1]+
          +0.002*[#  14]+
    |psi|^2 = 1.000
==== e(  12) =     5.91417 eV ==== 
     psi = 0.308*[#   9]+0.308*[#  12]+0.061*[#  10]+0.061*[#  11]+0.061*[#  13]+
          +0.032*[#  28]+0.032*[#  29]+0.032*[#  30]+0.032*[#  32]+0.032*[#  33]+
          +0.032*[#  34]+0.004*[#  22]+0.004*[#  25]+
    |psi|^2 = 1.000
==== e(  13) =     5.91417 eV ==== 
     psi = 0.308*[#   9]+0.308*[#  12]+0.061*[#  10]+0.061*[#  11]+0.061*[#  13]+
          +0.032*[#  28]+0.032*[#  29]+0.032*[#  30]+0.032*[#  32]+0.032*[#  33]+
          +0.032*[#  34]+0.004*[#  22]+0.004*[#  25]+
    |psi|^2 = 1.000
==== e(  14) =     7.51622 eV ==== 
     psi = 0.267*[#  10]+0.267*[#  11]+0.267*[#  13]+0.091*[#   9]+0.091*[#  12]+
          +0.002*[#  23]+0.002*[#  24]+0.002*[#  26]+0.002*[#  28]+0.002*[#  29]+
          +0.002*[#  30]+0.002*[#  32]+0.002*[#  33]+0.002*[#  34]+
    |psi|^2 = 1.000
==== e(  15) =     7.51622 eV ==== 
     psi = 0.267*[#  10]+0.267*[#  11]+0.267*[#  13]+0.091*[#   9]+0.091*[#  12]+
          +0.002*[#  23]+0.002*[#  24]+0.002*[#  26]+0.002*[#  28]+0.002*[#  29]+
          +0.002*[#  30]+0.002*[#  32]+0.002*[#  33]+0.002*[#  34]+
    |psi|^2 = 1.000
==== e(  16) =     8.74325 eV ==== 
     psi = 0.191*[#  10]+0.191*[#  11]+0.191*[#  13]+0.046*[#  28]+0.046*[#  29]+
          +0.046*[#  30]+0.046*[#  32]+0.046*[#  33]+0.046*[#  34]+0.044*[#   2]+
          +0.039*[#  15]+0.023*[#  23]+0.023*[#  24]+0.023*[#  26]+
    |psi|^2 = 0.998
==== e(  17) =    10.95488 eV ==== 
     psi = 0.163*[#  28]+0.163*[#  29]+0.163*[#  30]+0.163*[#  32]+0.163*[#  33]+
          +0.163*[#  34]+0.002*[#   6]+0.002*[#   7]+0.002*[#   8]+0.002*[#  19]+
          +0.002*[#  20]+0.002*[#  21]+
    |psi|^2 = 0.996
==== e(  18) =    10.97547 eV ==== 
     psi = 0.163*[#  28]+0.163*[#  29]+0.163*[#  30]+0.163*[#  32]+0.163*[#  33]+
          +0.163*[#  34]+0.002*[#   6]+0.002*[#   7]+0.002*[#   8]+0.002*[#  19]+
          +0.002*[#  20]+0.002*[#  21]+
    |psi|^2 = 0.996
==== e(  19) =    10.97548 eV ==== 
     psi = 0.163*[#  28]+0.163*[#  29]+0.163*[#  30]+0.163*[#  32]+0.163*[#  33]+
          +0.163*[#  34]+0.002*[#   6]+0.002*[#   7]+0.002*[#   8]+0.002*[#  19]+
          +0.002*[#  20]+0.002*[#  21]+
    |psi|^2 = 0.996
==== e(  20) =    11.12315 eV ==== 
     psi = 0.100*[#  28]+0.100*[#  29]+0.100*[#  30]+0.100*[#  32]+0.100*[#  33]+
          +0.100*[#  34]+0.094*[#   9]+0.094*[#  12]+0.084*[#  22]+0.084*[#  25]+
          +0.008*[#  23]+0.008*[#  24]+0.008*[#  26]+0.004*[#  10]+0.004*[#  11]+
          +0.004*[#  13]+
    |psi|^2 = 0.993
==== e(  21) =    11.12315 eV ==== 
     psi = 0.100*[#  28]+0.100*[#  29]+0.100*[#  30]+0.100*[#  32]+0.100*[#  33]+
          +0.100*[#  34]+0.094*[#   9]+0.094*[#  12]+0.084*[#  22]+0.084*[#  25]+
          +0.008*[#  23]+0.008*[#  24]+0.008*[#  26]+0.004*[#  10]+0.004*[#  11]+
          +0.004*[#  13]+
    |psi|^2 = 0.993
==== e(  22) =    13.75236 eV ==== 
     psi = 0.313*[#  23]+0.313*[#  24]+0.313*[#  26]+0.023*[#  22]+0.023*[#  25]+
          +0.002*[#  10]+0.002*[#  11]+0.002*[#  13]+0.001*[#  28]+0.001*[#  29]+
          +0.001*[#  30]+0.001*[#  32]+0.001*[#  33]+0.001*[#  34]+
    |psi|^2 = 0.995
==== e(  23) =    13.75236 eV ==== 
     psi = 0.313*[#  23]+0.313*[#  24]+0.313*[#  26]+0.023*[#  22]+0.023*[#  25]+
          +0.002*[#  10]+0.002*[#  11]+0.002*[#  13]+0.001*[#  28]+0.001*[#  29]+
          +0.001*[#  30]+0.001*[#  32]+0.001*[#  33]+0.001*[#  34]+
    |psi|^2 = 0.995
==== e(  24) =    13.85016 eV ==== 
     psi = 0.298*[#  23]+0.298*[#  24]+0.298*[#  26]+0.013*[#  28]+0.013*[#  29]+
          +0.013*[#  30]+0.013*[#  32]+0.013*[#  33]+0.013*[#  34]+0.007*[#   2]+
          +0.003*[#  10]+0.003*[#  11]+0.003*[#  13]+0.002*[#  15]+
    |psi|^2 = 0.995
==== e(  25) =    14.70811 eV ==== 
     psi = 0.319*[#   2]+0.288*[#  15]+0.185*[#  27]+0.185*[#  31]+0.008*[#  14]+
          +0.007*[#   1]+
    |psi|^2 = 0.994
==== e(  26) =    16.48577 eV ==== 
     psi = 0.387*[#  22]+0.387*[#  25]+0.030*[#  28]+0.030*[#  29]+0.030*[#  30]+
          +0.030*[#  32]+0.030*[#  33]+0.030*[#  34]+0.009*[#  23]+0.009*[#  24]+
          +0.009*[#  26]+0.007*[#   9]+0.007*[#  12]+
    |psi|^2 = 0.995
==== e(  27) =    16.48577 eV ==== 
     psi = 0.387*[#  22]+0.387*[#  25]+0.030*[#  28]+0.030*[#  29]+0.030*[#  30]+
          +0.030*[#  32]+0.030*[#  33]+0.030*[#  34]+0.009*[#  23]+0.009*[#  24]+
          +0.009*[#  26]+0.007*[#   9]+0.007*[#  12]+
    |psi|^2 = 0.995
==== e(  28) =    19.25142 eV ==== 
     psi = 0.121*[#   6]+0.121*[#   7]+0.121*[#   8]+0.115*[#  19]+0.115*[#  20]+
          +0.115*[#  21]+0.100*[#  27]+0.100*[#  31]+0.002*[#  16]+0.002*[#  17]+
          +0.002*[#  18]+0.001*[#   3]+0.001*[#   4]+0.001*[#   5]+
    |psi|^2 = 0.915
==== e(  29) =    23.16950 eV ==== 
     psi = 0.385*[#  15]+0.338*[#   2]+0.038*[#  28]+0.038*[#  29]+0.038*[#  30]+
          +0.038*[#  32]+0.038*[#  33]+0.038*[#  34]+0.005*[#   1]+0.004*[#  14]+
          +0.001*[#  23]+0.001*[#  24]+0.001*[#  26]+
    |psi|^2 = 0.965
==== e(  30) =    28.87362 eV ==== 
     psi = 0.126*[#   6]+0.126*[#   7]+0.126*[#   8]+0.112*[#  19]+0.112*[#  20]+
          +0.112*[#  21]+0.001*[#   3]+0.001*[#   4]+0.001*[#   5]+0.001*[#  16]+
          +0.001*[#  17]+0.001*[#  18]+
    |psi|^2 = 0.722
==== e(  31) =    28.87362 eV ==== 
     psi = 0.126*[#   6]+0.126*[#   7]+0.126*[#   8]+0.112*[#  19]+0.112*[#  20]+
          +0.112*[#  21]+0.001*[#   3]+0.001*[#   4]+0.001*[#   5]+0.001*[#  16]+
          +0.001*[#  17]+0.001*[#  18]+
    |psi|^2 = 0.722
==== e(  32) =    29.19000 eV ==== 
     psi = 
    |psi|^2 = 0.000
==== e(  33) =    30.96520 eV ==== 
     psi = 0.001*[#  23]+0.001*[#  24]+0.001*[#  26]+
    |psi|^2 = 0.005
==== e(  34) =    30.96520 eV ==== 
     psi = 0.001*[#  23]+0.001*[#  24]+0.001*[#  26]+
    |psi|^2 = 0.005
==== e(  35) =    31.01047 eV ==== 
     psi = 0.002*[#  23]+0.002*[#  24]+0.002*[#  26]+
    |psi|^2 = 0.006

 k =   0.2500000000 -0.0833333333 -0.0833333333
==== e(   1) =   -76.42289 eV ==== 
     psi = 0.946*[#   1]+0.010*[#   6]+0.010*[#   7]+0.010*[#   8]+0.005*[#  19]+
          +0.005*[#  20]+0.005*[#  21]+0.001*[#   2]+0.001*[#  15]+
    |psi|^2 = 1.000
==== e(   2) =   -72.30254 eV ==== 
     psi = 0.946*[#  14]+0.010*[#  19]+0.010*[#  20]+0.010*[#  21]+0.005*[#   6]+
          +0.005*[#   7]+0.005*[#   8]+0.001*[#   2]+0.001*[#  15]+
    |psi|^2 = 1.000
==== e(   3) =   -42.21484 eV ==== 
     psi = 0.330*[#   3]+0.330*[#   4]+0.330*[#   5]+0.002*[#   2]+
    |psi|^2 = 0.998
==== e(   4) =   -42.19931 eV ==== 
     psi = 0.328*[#   3]+0.328*[#   4]+0.328*[#   5]+0.004*[#   6]+0.004*[#   7]+
          +0.004*[#   8]+
    |psi|^2 = 0.999
==== e(   5) =   -41.79292 eV ==== 
     psi = 0.328*[#   3]+0.328*[#   4]+0.328*[#   5]+0.004*[#  19]+0.004*[#  20]+
          +0.004*[#  21]+
    |psi|^2 = 0.998
==== e(   6) =   -38.14686 eV ==== 
     psi = 0.330*[#  16]+0.330*[#  17]+0.330*[#  18]+0.002*[#  15]+
    |psi|^2 = 0.998
==== e(   7) =   -38.13058 eV ==== 
     psi = 0.329*[#  16]+0.329*[#  17]+0.329*[#  18]+0.003*[#  19]+0.003*[#  20]+
          +0.003*[#  21]+
    |psi|^2 = 0.999
==== e(   8) =   -37.97454 eV ==== 
     psi = 0.328*[#  16]+0.328*[#  17]+0.328*[#  18]+0.004*[#   6]+0.004*[#   7]+
          +0.004*[#   8]+
    |psi|^2 = 0.998
==== e(   9) =    -5.89613 eV ==== 
     psi = 0.305*[#  27]+0.305*[#  31]+0.086*[#   2]+0.082*[#  15]+0.034*[#   6]+
          +0.034*[#   7]+0.034*[#   8]+0.034*[#  19]+0.034*[#  20]+0.034*[#  21]+
          +0.008*[#  14]+0.007*[#   1]+
    |psi|^2 = 1.000
==== e(  10) =    -4.95561 eV ==== 
     psi = 0.400*[#  27]+0.400*[#  31]+0.029*[#   6]+0.029*[#   7]+0.029*[#   8]+
          +0.028*[#  19]+0.028*[#  20]+0.028*[#  21]+0.008*[#   9]+0.008*[#  12]+
          +0.003*[#  22]+0.003*[#  25]+
    |psi|^2 = 0.999
==== e(  11) =     5.25722 eV ==== 
     psi = 0.139*[#  10]+0.139*[#  11]+0.139*[#  13]+0.060*[#  28]+0.060*[#  29]+
          +0.060*[#  30]+0.060*[#  32]+0.060*[#  33]+0.060*[#  34]+0.055*[#  15]+
          +0.047*[#   2]+0.030*[#   9]+0.030*[#  12]+0.006*[#  23]+0.006*[#  24]+
          +0.006*[#  26]+0.006*[#  19]+0.006*[#  20]+0.006*[#  21]+0.006*[#   6]+
          +0.006*[#   7]+0.006*[#   8]+0.002*[#  14]+0.001*[#   1]+
    |psi|^2 = 1.000
==== e(  12) =     5.97342 eV ==== 
     psi = 0.229*[#   9]+0.229*[#  12]+0.095*[#  10]+0.095*[#  11]+0.095*[#  13]+
          +0.036*[#  28]+0.036*[#  29]+0.036*[#  30]+0.036*[#  32]+0.036*[#  33]+
          +0.036*[#  34]+0.005*[#   6]+0.005*[#   7]+0.005*[#   8]+0.004*[#  19]+
          +0.004*[#  20]+0.004*[#  21]+0.004*[#   2]+0.002*[#  15]+0.002*[#  27]+
          +0.002*[#  31]+0.001*[#  23]+0.001*[#  24]+0.001*[#  26]+
    |psi|^2 = 1.000
==== e(  13) =     6.11115 eV ==== 
     psi = 0.346*[#   9]+0.346*[#  12]+0.033*[#  28]+0.033*[#  29]+0.033*[#  30]+
          +0.033*[#  32]+0.033*[#  33]+0.033*[#  34]+0.032*[#  10]+0.032*[#  11]+
          +0.032*[#  13]+0.004*[#  22]+0.004*[#  25]+
    |psi|^2 = 1.000
==== e(  14) =     7.17565 eV ==== 
     psi = 0.211*[#  10]+0.211*[#  11]+0.211*[#  13]+0.115*[#   9]+0.115*[#  12]+
          +0.017*[#  28]+0.017*[#  29]+0.017*[#  30]+0.017*[#  32]+0.017*[#  33]+
          +0.017*[#  34]+0.007*[#   2]+0.005*[#  27]+0.005*[#  31]+0.004*[#  15]+
          +0.002*[#  22]+0.002*[#  25]+0.002*[#  23]+0.002*[#  24]+0.002*[#  26]+
    |psi|^2 = 0.999
==== e(  15) =     7.40495 eV ==== 
     psi = 0.284*[#  10]+0.284*[#  11]+0.284*[#  13]+0.046*[#   9]+0.046*[#  12]+
          +0.008*[#  28]+0.008*[#  29]+0.008*[#  30]+0.008*[#  32]+0.008*[#  33]+
          +0.008*[#  34]+0.002*[#  23]+0.002*[#  24]+0.002*[#  26]+0.001*[#  19]+
          +0.001*[#  20]+0.001*[#  21]+
    |psi|^2 = 1.000
==== e(  16) =     8.68098 eV ==== 
     psi = 0.161*[#  10]+0.161*[#  11]+0.161*[#  13]+0.068*[#   2]+0.058*[#  28]+
          +0.058*[#  29]+0.058*[#  30]+0.058*[#  32]+0.058*[#  33]+0.058*[#  34]+
          +0.019*[#  23]+0.019*[#  24]+0.019*[#  26]+0.013*[#  15]+0.004*[#  27]+
          +0.004*[#  31]+0.003*[#  22]+0.003*[#  25]+0.003*[#   6]+0.003*[#   7]+
          +0.003*[#   8]+0.002*[#  19]+0.002*[#  20]+0.002*[#  21]+
    |psi|^2 = 0.998
==== e(  17) =     9.69613 eV ==== 
     psi = 0.116*[#  28]+0.116*[#  29]+0.116*[#  30]+0.116*[#  32]+0.116*[#  33]+
          +0.116*[#  34]+0.043*[#  22]+0.043*[#  25]+0.036*[#  10]+0.036*[#  11]+
          +0.036*[#  13]+0.018*[#  15]+0.011*[#  27]+0.011*[#  31]+0.009*[#  19]+
          +0.009*[#  20]+0.009*[#  21]+0.008*[#   2]+0.005*[#  23]+0.005*[#  24]+
          +0.005*[#  26]+0.003*[#   6]+0.003*[#   7]+0.003*[#   8]+0.001*[#  14]+
    |psi|^2 = 0.996
==== e(  18) =    10.16882 eV ==== 
     psi = 0.119*[#  28]+0.119*[#  29]+0.119*[#  30]+0.119*[#  32]+0.119*[#  33]+
          +0.119*[#  34]+0.046*[#  15]+0.034*[#   9]+0.034*[#  12]+0.020*[#  27]+
          +0.020*[#  31]+0.014*[#  10]+0.014*[#  11]+0.014*[#  13]+0.013*[#  23]+
          +0.013*[#  24]+0.013*[#  26]+0.013*[#   2]+0.007*[#   6]+0.007*[#   7]+
          +0.007*[#   8]+0.004*[#  22]+0.004*[#  25]+0.001*[#  14]+
    |psi|^2 = 0.995
==== e(  19) =    10.59194 eV ==== 
     psi = 0.134*[#  28]+0.134*[#  29]+0.134*[#  30]+0.134*[#  32]+0.134*[#  33]+
          +0.134*[#  34]+0.048*[#  22]+0.048*[#  25]+0.016*[#  10]+0.016*[#  11]+
          +0.016*[#  13]+0.013*[#   9]+0.013*[#  12]+0.005*[#   6]+0.005*[#   7]+
          +0.005*[#   8]+0.002*[#  23]+0.002*[#  24]+0.002*[#  26]+
    |psi|^2 = 0.996
==== e(  20) =    11.34297 eV ==== 
     psi = 0.117*[#  28]+0.117*[#  29]+0.117*[#  30]+0.117*[#  32]+0.117*[#  33]+
          +0.117*[#  34]+0.089*[#   9]+0.089*[#  12]+0.031*[#  22]+0.031*[#  25]+
          +0.012*[#  23]+0.012*[#  24]+0.012*[#  26]+0.005*[#  19]+0.005*[#  20]+
          +0.005*[#  21]+
    |psi|^2 = 0.995
==== e(  21) =    11.49144 eV ==== 
     psi = 0.127*[#  28]+0.127*[#  29]+0.127*[#  30]+0.127*[#  32]+0.127*[#  33]+
          +0.127*[#  34]+0.076*[#   9]+0.076*[#  12]+0.009*[#  27]+0.009*[#  31]+
          +0.007*[#  15]+0.006*[#  10]+0.006*[#  11]+0.006*[#  13]+0.006*[#  19]+
          +0.006*[#  20]+0.006*[#  21]+0.004*[#   6]+0.004*[#   7]+0.004*[#   8]+
          +0.003*[#  23]+0.003*[#  24]+0.003*[#  26]+
    |psi|^2 = 0.993
==== e(  22) =    13.64339 eV ==== 
     psi = 0.297*[#  23]+0.297*[#  24]+0.297*[#  26]+0.019*[#  22]+0.019*[#  25]+
          +0.007*[#  28]+0.007*[#  29]+0.007*[#  30]+0.007*[#  32]+0.007*[#  33]+
          +0.007*[#  34]+0.005*[#  15]+0.002*[#  27]+0.002*[#  31]+0.002*[#  10]+
          +0.002*[#  11]+0.002*[#  13]+0.002*[#   6]+0.002*[#   7]+0.002*[#   8]+
    |psi|^2 = 0.993
==== e(  23) =    13.95278 eV ==== 
     psi = 0.292*[#  23]+0.292*[#  24]+0.292*[#  26]+0.012*[#  28]+0.012*[#  29]+
          +0.012*[#  30]+0.012*[#  32]+0.012*[#  33]+0.012*[#  34]+0.010*[#   2]+
          +0.010*[#  22]+0.010*[#  25]+0.004*[#  27]+0.004*[#  31]+0.001*[#   6]+
          +0.001*[#   7]+0.001*[#   8]+0.001*[#  10]+0.001*[#  11]+0.001*[#  13]+
          +0.001*[#  19]+0.001*[#  20]+0.001*[#  21]+
    |psi|^2 = 0.996
==== e(  24) =    13.96240 eV ==== 
     psi = 0.309*[#  23]+0.309*[#  24]+0.309*[#  26]+0.013*[#  22]+0.013*[#  25]+
          +0.007*[#  28]+0.007*[#  29]+0.007*[#  30]+0.007*[#  32]+0.007*[#  33]+
          +0.007*[#  34]+
    |psi|^2 = 0.997
==== e(  25) =    15.90896 eV ==== 
     psi = 0.203*[#  22]+0.203*[#  25]+0.110*[#   2]+0.083*[#  27]+0.083*[#  31]+
          +0.057*[#  15]+0.019*[#  28]+0.019*[#  29]+0.019*[#  30]+0.019*[#  32]+
          +0.019*[#  33]+0.019*[#  34]+0.019*[#  19]+0.019*[#  20]+0.019*[#  21]+
          +0.015*[#  23]+0.015*[#  24]+0.015*[#  26]+0.011*[#   6]+0.011*[#   7]+
          +0.011*[#   8]+0.004*[#  14]+0.003*[#   1]+0.002*[#   9]+0.002*[#  12]+
    |psi|^2 = 0.995
==== e(  26) =    16.45398 eV ==== 
     psi = 0.402*[#  22]+0.402*[#  25]+0.026*[#  28]+0.026*[#  29]+0.026*[#  30]+
          +0.026*[#  32]+0.026*[#  33]+0.026*[#  34]+0.007*[#  23]+0.007*[#  24]+
          +0.007*[#  26]+0.005*[#   9]+0.005*[#  12]+0.001*[#   6]+0.001*[#   7]+
          +0.001*[#   8]+
    |psi|^2 = 0.996
==== e(  27) =    16.66138 eV ==== 
     psi = 0.203*[#  22]+0.203*[#  25]+0.072*[#  15]+0.070*[#  27]+0.070*[#  31]+
          +0.059*[#   2]+0.032*[#  28]+0.032*[#  29]+0.032*[#  30]+0.032*[#  32]+
          +0.032*[#  33]+0.032*[#  34]+0.022*[#   6]+0.022*[#   7]+0.022*[#   8]+
          +0.013*[#  19]+0.013*[#  20]+0.013*[#  21]+0.005*[#  14]+0.004*[#   1]+
          +0.002*[#  23]+0.002*[#  24]+0.002*[#  26]+
    |psi|^2 = 0.995
==== e(  28) =    20.67523 eV ==== 
     psi = 0.112*[#   6]+0.112*[#   7]+0.112*[#   8]+0.111*[#  19]+0.111*[#  20]+
          +0.111*[#  21]+0.065*[#  27]+0.065*[#  31]+0.014*[#  28]+0.014*[#  29]+
          +0.014*[#  30]+0.014*[#  32]+0.014*[#  33]+0.014*[#  34]+0.007*[#  22]+
          +0.007*[#  25]+0.003*[#  23]+0.003*[#  24]+0.003*[#  26]+0.002*[#   2]+
          +0.002*[#  15]+0.001*[#   9]+0.001*[#  12]+
    |psi|^2 = 0.915
==== e(  29) =    23.06873 eV ==== 
     psi = 0.342*[#  15]+0.313*[#   2]+0.036*[#  28]+0.036*[#  29]+0.036*[#  30]+
          +0.036*[#  32]+0.036*[#  33]+0.036*[#  34]+0.016*[#  19]+0.016*[#  20]+
          +0.016*[#  21]+0.011*[#   6]+0.011*[#   7]+0.011*[#   8]+0.005*[#   1]+
          +0.003*[#  14]+0.001*[#  23]+0.001*[#  24]+0.001*[#  26]+
    |psi|^2 = 0.964
==== e(  30) =    26.36469 eV ==== 
     psi = 0.126*[#   6]+0.126*[#   7]+0.126*[#   8]+0.098*[#  19]+0.098*[#  20]+
          +0.098*[#  21]+0.065*[#   2]+0.045*[#  15]+0.004*[#  28]+0.004*[#  29]+
          +0.004*[#  30]+0.004*[#  32]+0.004*[#  33]+0.004*[#  34]+0.003*[#   1]+
          +0.001*[#  23]+0.001*[#  24]+0.001*[#  26]+0.001*[#  14]+0.001*[#  27]+
          +0.001*[#  31]+0.001*[#   3]+0.001*[#   4]+0.001*[#   5]+
    |psi|^2 = 0.823
==== e(  31) =    27.03066 eV ==== 
     psi = 0.028*[#  19]+0.028*[#  20]+0.028*[#  21]+0.026*[#   6]+0.026*[#   7]+
          +0.026*[#   8]+0.019*[#  15]+0.011*[#   2]+0.003*[#  23]+0.003*[#  24]+
          +0.003*[#  26]+0.002*[#  14]+0.001*[#   1]+
    |psi|^2 = 0.211
==== e(  32) =    29.65085 eV ==== 
     psi = 0.145*[#   6]+0.145*[#   7]+0.145*[#   8]+0.097*[#  19]+0.097*[#  20]+
          +0.097*[#  21]+0.003*[#  28]+0.003*[#  29]+0.003*[#  30]+0.003*[#  32]+
          +0.003*[#  33]+0.003*[#  34]+0.002*[#   3]+0.002*[#   4]+0.002*[#   5]+
    |psi|^2 = 0.750
==== e(  33) =    30.62508 eV ==== 
     psi = 0.079*[#  19]+0.079*[#  20]+0.079*[#  21]+0.049*[#   6]+0.049*[#   7]+
          +0.049*[#   8]+0.002*[#  23]+0.002*[#  24]+0.002*[#  26]+0.002*[#  16]+
          +0.002*[#  17]+0.002*[#  18]+0.001*[#   3]+0.001*[#   4]+0.001*[#   5]+
          +0.001*[#  28]+0.001*[#  29]+0.001*[#  30]+0.001*[#  32]+0.001*[#  33]+
          +0.001*[#  34]+
    |psi|^2 = 0.407
==== e(  34) =    30.75028 eV ==== 
     psi = 0.054*[#  15]+0.049*[#   2]+0.032*[#  19]+0.032*[#  20]+0.032*[#  21]+
          +0.019*[#   6]+0.019*[#   7]+0.019*[#   8]+0.006*[#  14]+0.005*[#   1]+
          +0.002*[#  23]+0.002*[#  24]+0.002*[#  26]+0.001*[#  27]+0.001*[#  31]+
    |psi|^2 = 0.281
==== e(  35) =    33.72350 eV ==== 
     psi = 0.055*[#  15]+0.047*[#   2]+0.035*[#   6]+0.035*[#   7]+0.035*[#   8]+
          +0.035*[#  19]+0.035*[#  20]+0.035*[#  21]+0.006*[#   1]+0.006*[#  14]+
          +0.001*[#  27]+0.001*[#  31]+
    |psi|^2 = 0.333

 k =   0.5000000000 -0.1666666667 -0.1666666667
==== e(   1) =   -76.42383 eV ==== 
     psi = 0.952*[#   1]+0.008*[#   2]+0.007*[#   6]+0.007*[#   7]+0.007*[#   8]+
          +0.005*[#  19]+0.005*[#  20]+0.005*[#  21]+
    |psi|^2 = 1.000
==== e(   2) =   -72.30005 eV ==== 
     psi = 0.952*[#  14]+0.007*[#  19]+0.007*[#  20]+0.007*[#  21]+0.007*[#  15]+
          +0.005*[#   6]+0.005*[#   7]+0.005*[#   8]+
    |psi|^2 = 1.000
==== e(   3) =   -42.25719 eV ==== 
     psi = 0.330*[#   3]+0.330*[#   4]+0.330*[#   5]+
    |psi|^2 = 0.998
==== e(   4) =   -42.20397 eV ==== 
     psi = 0.330*[#   3]+0.330*[#   4]+0.330*[#   5]+0.002*[#   6]+0.002*[#   7]+
          +0.002*[#   8]+
    |psi|^2 = 0.998
==== e(   5) =   -41.79142 eV ==== 
     psi = 0.330*[#   3]+0.330*[#   4]+0.330*[#   5]+
    |psi|^2 = 0.998
==== e(   6) =   -38.19459 eV ==== 
     psi = 0.329*[#  16]+0.329*[#  17]+0.329*[#  18]+
    |psi|^2 = 0.998
==== e(   7) =   -38.13686 eV ==== 
     psi = 0.330*[#  16]+0.330*[#  17]+0.330*[#  18]+0.002*[#  19]+0.002*[#  20]+
          +0.002*[#  21]+
    |psi|^2 = 0.998
==== e(   8) =   -37.97577 eV ==== 
     psi = 0.330*[#  16]+0.330*[#  17]+0.330*[#  18]+
    |psi|^2 = 0.998
==== e(   9) =    -5.45826 eV ==== 
     psi = 0.350*[#  27]+0.350*[#  31]+0.043*[#  19]+0.043*[#  20]+0.043*[#  21]+
          +0.026*[#   2]+0.026*[#   6]+0.026*[#   7]+0.026*[#   8]+0.023*[#  15]+
          +0.015*[#   9]+0.015*[#  12]+0.004*[#  14]+0.003*[#   1]+
    |psi|^2 = 1.000
==== e(  10) =    -4.95244 eV ==== 
     psi = 0.415*[#  27]+0.415*[#  31]+0.028*[#   6]+0.028*[#   7]+0.028*[#   8]+
          +0.012*[#   9]+0.012*[#  12]+0.011*[#  19]+0.011*[#  20]+0.011*[#  21]+
          +0.009*[#  22]+0.009*[#  25]+0.005*[#  15]+0.003*[#   2]+
    |psi|^2 = 0.999
==== e(  11) =     5.50206 eV ==== 
     psi = 0.146*[#  10]+0.146*[#  11]+0.146*[#  13]+0.117*[#   9]+0.117*[#  12]+
          +0.041*[#  28]+0.041*[#  29]+0.041*[#  30]+0.041*[#  32]+0.041*[#  33]+
          +0.041*[#  34]+0.016*[#   2]+0.016*[#  15]+0.010*[#  19]+0.010*[#  20]+
          +0.010*[#  21]+0.004*[#   6]+0.004*[#   7]+0.004*[#   8]+0.002*[#  27]+
          +0.002*[#  31]+0.001*[#  14]+
    |psi|^2 = 1.000
==== e(  12) =     6.05564 eV ==== 
     psi = 0.140*[#  10]+0.140*[#  11]+0.140*[#  13]+0.073*[#   9]+0.073*[#  12]+
          +0.051*[#  28]+0.051*[#  29]+0.051*[#  30]+0.051*[#  32]+0.051*[#  33]+
          +0.051*[#  34]+0.021*[#   2]+0.018*[#  19]+0.018*[#  20]+0.018*[#  21]+
          +0.017*[#  15]+0.008*[#  27]+0.008*[#  31]+0.005*[#  22]+0.005*[#  25]+
          +0.002*[#  14]+0.001*[#   1]+0.001*[#  23]+0.001*[#  24]+0.001*[#  26]+
    |psi|^2 = 0.999
==== e(  13) =     6.30338 eV ==== 
     psi = 0.382*[#   9]+0.382*[#  12]+0.036*[#  28]+0.036*[#  29]+0.036*[#  30]+
          +0.036*[#  32]+0.036*[#  33]+0.036*[#  34]+0.003*[#  19]+0.003*[#  20]+
          +0.003*[#  21]+0.002*[#  10]+0.002*[#  11]+0.002*[#  13]+0.001*[#  22]+
          +0.001*[#  25]+
    |psi|^2 = 1.000
==== e(  14) =     6.93436 eV ==== 
     psi = 0.140*[#  10]+0.140*[#  11]+0.140*[#  13]+0.093*[#   9]+0.093*[#  12]+
          +0.047*[#  28]+0.047*[#  29]+0.047*[#  30]+0.047*[#  32]+0.047*[#  33]+
          +0.047*[#  34]+0.018*[#   6]+0.018*[#   7]+0.018*[#   8]+0.009*[#   2]+
          +0.005*[#  22]+0.005*[#  25]+0.005*[#  27]+0.005*[#  31]+0.005*[#  23]+
          +0.005*[#  24]+0.005*[#  26]+0.003*[#  19]+0.003*[#  20]+0.003*[#  21]+
    |psi|^2 = 0.999
==== e(  15) =     7.53574 eV ==== 
     psi = 0.304*[#  10]+0.304*[#  11]+0.304*[#  13]+0.010*[#  28]+0.010*[#  29]+
          +0.010*[#  30]+0.010*[#  32]+0.010*[#  33]+0.010*[#  34]+0.005*[#   9]+
          +0.005*[#  12]+0.002*[#  22]+0.002*[#  25]+0.002*[#   6]+0.002*[#   7]+
          +0.002*[#   8]+
    |psi|^2 = 1.000
==== e(  16) =     8.44387 eV ==== 
     psi = 0.084*[#  28]+0.084*[#  29]+0.084*[#  30]+0.084*[#  32]+0.084*[#  33]+
          +0.084*[#  34]+0.067*[#   9]+0.067*[#  12]+0.048*[#  10]+0.048*[#  11]+
          +0.048*[#  13]+0.024*[#   6]+0.024*[#   7]+0.024*[#   8]+0.023*[#   2]+
          +0.019*[#  27]+0.019*[#  31]+0.019*[#  15]+0.018*[#  23]+0.018*[#  24]+
          +0.018*[#  26]+0.002*[#  19]+0.002*[#  20]+0.002*[#  21]+
    |psi|^2 = 0.998
==== e(  17) =     8.52291 eV ==== 
     psi = 0.098*[#  28]+0.098*[#  29]+0.098*[#  30]+0.098*[#  32]+0.098*[#  33]+
          +0.098*[#  34]+0.063*[#  10]+0.063*[#  11]+0.063*[#  13]+0.039*[#   2]+
          +0.039*[#  15]+0.018*[#  23]+0.018*[#  24]+0.018*[#  26]+0.016*[#  22]+
          +0.016*[#  25]+0.011*[#   6]+0.011*[#   7]+0.011*[#   8]+0.003*[#  19]+
          +0.003*[#  20]+0.003*[#  21]+0.002*[#   9]+0.002*[#  12]+0.002*[#  27]+
          +0.002*[#  31]+
    |psi|^2 = 0.997
==== e(  18) =     9.82179 eV ==== 
     psi = 0.116*[#  10]+0.116*[#  11]+0.116*[#  13]+0.078*[#  28]+0.078*[#  29]+
          +0.078*[#  30]+0.078*[#  32]+0.078*[#  33]+0.078*[#  34]+0.023*[#  15]+
          +0.022*[#   9]+0.022*[#  12]+0.020*[#  19]+0.020*[#  20]+0.020*[#  21]+
          +0.012*[#  27]+0.012*[#  31]+0.011*[#   2]+0.003*[#  23]+0.003*[#  24]+
          +0.003*[#  26]+0.001*[#   6]+0.001*[#   7]+0.001*[#   8]+
    |psi|^2 = 0.998
==== e(  19) =     9.95059 eV ==== 
     psi = 0.124*[#  28]+0.124*[#  29]+0.124*[#  30]+0.124*[#  32]+0.124*[#  33]+
          +0.124*[#  34]+0.056*[#  22]+0.056*[#  25]+0.020*[#  10]+0.020*[#  11]+
          +0.020*[#  13]+0.011*[#   6]+0.011*[#   7]+0.011*[#   8]+0.010*[#   9]+
          +0.010*[#  12]+0.008*[#  23]+0.008*[#  24]+0.008*[#  26]+
    |psi|^2 = 0.997
==== e(  20) =    11.13104 eV ==== 
     psi = 0.110*[#  28]+0.110*[#  29]+0.110*[#  30]+0.110*[#  32]+0.110*[#  33]+
          +0.110*[#  34]+0.094*[#   9]+0.094*[#  12]+0.019*[#  22]+0.019*[#  25]+
          +0.015*[#  27]+0.015*[#  31]+0.009*[#   2]+0.008*[#  10]+0.008*[#  11]+
          +0.008*[#  13]+0.008*[#  15]+0.006*[#  19]+0.006*[#  20]+0.006*[#  21]+
          +0.003*[#   6]+0.003*[#   7]+0.003*[#   8]+
    |psi|^2 = 0.993
==== e(  21) =    11.61288 eV ==== 
     psi = 0.118*[#  28]+0.118*[#  29]+0.118*[#  30]+0.118*[#  32]+0.118*[#  33]+
          +0.118*[#  34]+0.101*[#   9]+0.101*[#  12]+0.011*[#  19]+0.011*[#  20]+
          +0.011*[#  21]+0.008*[#  22]+0.008*[#  25]+0.006*[#  23]+0.006*[#  24]+
          +0.006*[#  26]+0.006*[#  10]+0.006*[#  11]+0.006*[#  13]+
    |psi|^2 = 0.996
==== e(  22) =    13.36555 eV ==== 
     psi = 0.294*[#  23]+0.294*[#  24]+0.294*[#  26]+0.014*[#  22]+0.014*[#  25]+
          +0.010*[#  28]+0.010*[#  29]+0.010*[#  30]+0.010*[#  32]+0.010*[#  33]+
          +0.010*[#  34]+0.005*[#  15]+0.003*[#   6]+0.003*[#   7]+0.003*[#   8]+
          +0.003*[#  27]+0.003*[#  31]+
    |psi|^2 = 0.990
==== e(  23) =    14.29906 eV ==== 
     psi = 0.300*[#  23]+0.300*[#  24]+0.300*[#  26]+0.012*[#  28]+0.012*[#  29]+
          +0.012*[#  30]+0.012*[#  32]+0.012*[#  33]+0.012*[#  34]+0.006*[#  22]+
          +0.006*[#  25]+0.003*[#   2]+0.002*[#  27]+0.002*[#  31]+
    |psi|^2 = 0.998
==== e(  24) =    14.32919 eV ==== 
     psi = 0.312*[#  23]+0.312*[#  24]+0.312*[#  26]+0.009*[#  28]+0.009*[#  29]+
          +0.009*[#  30]+0.009*[#  32]+0.009*[#  33]+0.009*[#  34]+0.003*[#  22]+
          +0.003*[#  25]+
    |psi|^2 = 0.999
==== e(  25) =    16.18130 eV ==== 
     psi = 0.383*[#  22]+0.383*[#  25]+0.036*[#   2]+0.030*[#  27]+0.030*[#  31]+
          +0.012*[#  23]+0.012*[#  24]+0.012*[#  26]+0.010*[#  28]+0.010*[#  29]+
          +0.010*[#  30]+0.010*[#  32]+0.010*[#  33]+0.010*[#  34]+0.007*[#   6]+
          +0.007*[#   7]+0.007*[#   8]+0.004*[#  19]+0.004*[#  20]+0.004*[#  21]+
          +0.001*[#  14]+
    |psi|^2 = 0.997
==== e(  26) =    16.40207 eV ==== 
     psi = 0.429*[#  22]+0.429*[#  25]+0.019*[#  28]+0.019*[#  29]+0.019*[#  30]+
          +0.019*[#  32]+0.019*[#  33]+0.019*[#  34]+0.004*[#  23]+0.004*[#  24]+
          +0.004*[#  26]+0.002*[#   6]+0.002*[#   7]+0.002*[#   8]+0.002*[#   9]+
          +0.002*[#  12]+
    |psi|^2 = 0.998
==== e(  27) =    19.06108 eV ==== 
     psi = 0.098*[#   2]+0.079*[#  27]+0.079*[#  31]+0.071*[#  15]+0.050*[#  28]+
          +0.050*[#  29]+0.050*[#  30]+0.050*[#  32]+0.050*[#  33]+0.050*[#  34]+
          +0.046*[#  19]+0.046*[#  20]+0.046*[#  21]+0.045*[#   6]+0.045*[#   7]+
          +0.045*[#   8]+0.036*[#  22]+0.036*[#  25]+0.005*[#  14]+0.004*[#   1]+
          +0.003*[#   9]+0.003*[#  12]+
    |psi|^2 = 0.987
==== e(  28) =    22.56088 eV ==== 
     psi = 0.196*[#   2]+0.171*[#  15]+0.064*[#  19]+0.064*[#  20]+0.064*[#  21]+
          +0.044*[#   6]+0.044*[#   7]+0.044*[#   8]+0.031*[#  28]+0.031*[#  29]+
          +0.031*[#  30]+0.031*[#  32]+0.031*[#  33]+0.031*[#  34]+0.013*[#  27]+
          +0.013*[#  31]+0.004*[#  22]+0.004*[#  25]+0.003*[#   1]+0.003*[#  23]+
          +0.003*[#  24]+0.003*[#  26]+0.001*[#   9]+0.001*[#  12]+
    |psi|^2 = 0.926
==== e(  29) =    23.03110 eV ==== 
     psi = 0.238*[#   2]+0.211*[#  15]+0.071*[#   6]+0.071*[#   7]+0.071*[#   8]+
          +0.060*[#  19]+0.060*[#  20]+0.060*[#  21]+0.024*[#  27]+0.024*[#  31]+
          +0.008*[#   1]+0.004*[#  14]+0.002*[#  23]+0.002*[#  24]+0.002*[#  26]+
          +0.001*[#  28]+0.001*[#  29]+0.001*[#  30]+0.001*[#  32]+0.001*[#  33]+
          +0.001*[#  34]+
    |psi|^2 = 0.919
==== e(  30) =    23.84226 eV ==== 
     psi = 0.126*[#   6]+0.126*[#   7]+0.126*[#   8]+0.120*[#  19]+0.120*[#  20]+
          +0.120*[#  21]+0.025*[#  28]+0.025*[#  29]+0.025*[#  30]+0.025*[#  32]+
          +0.025*[#  33]+0.025*[#  34]+0.003*[#  23]+0.003*[#  24]+0.003*[#  26]+
          +0.002*[#  15]+0.001*[#   2]+
    |psi|^2 = 0.901
==== e(  31) =    25.00664 eV ==== 
     psi = 0.120*[#  15]+0.063*[#   2]+0.059*[#   6]+0.059*[#   7]+0.059*[#   8]+
          +0.044*[#  19]+0.044*[#  20]+0.044*[#  21]+0.007*[#  14]+0.006*[#  28]+
          +0.006*[#  29]+0.006*[#  30]+0.006*[#  32]+0.006*[#  33]+0.006*[#  34]+
          +0.005*[#   1]+0.005*[#  23]+0.005*[#  24]+0.005*[#  26]+0.002*[#  27]+
          +0.002*[#  31]+
    |psi|^2 = 0.564
==== e(  32) =    27.95551 eV ==== 
     psi = 0.202*[#  15]+0.151*[#   2]+0.059*[#  19]+0.059*[#  20]+0.059*[#  21]+
          +0.054*[#   6]+0.054*[#   7]+0.054*[#   8]+0.015*[#  14]+0.013*[#   1]+
          +0.002*[#  27]+0.002*[#  31]+
    |psi|^2 = 0.734
==== e(  33) =    29.98831 eV ==== 
     psi = 0.187*[#   6]+0.187*[#   7]+0.187*[#   8]+0.031*[#  19]+0.031*[#  20]+
          +0.031*[#  21]+0.005*[#  28]+0.005*[#  29]+0.005*[#  30]+0.005*[#  32]+
          +0.005*[#  33]+0.005*[#  34]+0.002*[#   3]+0.002*[#   4]+0.002*[#   5]+
    |psi|^2 = 0.696
==== e(  34) =    30.65633 eV ==== 
     psi = 0.211*[#  19]+0.211*[#  20]+0.211*[#  21]+0.061*[#   6]+0.061*[#   7]+
          +0.061*[#   8]+0.007*[#  28]+0.007*[#  29]+0.007*[#  30]+0.007*[#  32]+
          +0.007*[#  33]+0.007*[#  34]+0.002*[#  16]+0.002*[#  17]+0.002*[#  18]+
    |psi|^2 = 0.864
==== e(  35) =    32.15850 eV ==== 
     psi = 0.062*[#  19]+0.062*[#  20]+0.062*[#  21]+0.038*[#   6]+0.038*[#   7]+
          +0.038*[#   8]+0.002*[#  28]+0.002*[#  29]+0.002*[#  30]+0.002*[#  32]+
          +0.002*[#  33]+0.002*[#  34]+
    |psi|^2 = 0.321

 k =  -0.7500000000  0.2500000000  0.2500000000
==== e(   1) =   -76.42658 eV ==== 
     psi = 0.973*[#   1]+0.008*[#   2]+0.005*[#  19]+0.005*[#  20]+0.005*[#  21]+
    |psi|^2 = 1.000
==== e(   2) =   -72.29876 eV ==== 
     psi = 0.974*[#  14]+0.007*[#  15]+0.005*[#   6]+0.005*[#   7]+0.005*[#   8]+
    |psi|^2 = 1.000
==== e(   3) =   -42.27796 eV ==== 
     psi = 0.329*[#   3]+0.329*[#   4]+0.329*[#   5]+0.002*[#   6]+0.002*[#   7]+
          +0.002*[#   8]+
    |psi|^2 = 0.998
==== e(   4) =   -42.20810 eV ==== 
     psi = 0.331*[#   3]+0.331*[#   4]+0.331*[#   5]+0.001*[#   6]+0.001*[#   7]+
          +0.001*[#   8]+
    |psi|^2 = 0.998
==== e(   5) =   -41.79763 eV ==== 
     psi = 0.329*[#   3]+0.329*[#   4]+0.329*[#   5]+0.002*[#   6]+0.002*[#   7]+
          +0.002*[#   8]+
    |psi|^2 = 0.998
==== e(   6) =   -38.21981 eV ==== 
     psi = 0.329*[#  16]+0.329*[#  17]+0.329*[#  18]+0.002*[#  19]+0.002*[#  20]+
          +0.002*[#  21]+
    |psi|^2 = 0.998
==== e(   7) =   -38.14202 eV ==== 
     psi = 0.331*[#  16]+0.331*[#  17]+0.331*[#  18]+0.001*[#  19]+0.001*[#  20]+
          +0.001*[#  21]+
    |psi|^2 = 0.998
==== e(   8) =   -37.98331 eV ==== 
     psi = 0.330*[#  16]+0.330*[#  17]+0.330*[#  18]+0.001*[#  19]+0.001*[#  20]+
          +0.001*[#  21]+
    |psi|^2 = 0.998
==== e(   9) =    -5.34198 eV ==== 
     psi = 0.396*[#  27]+0.396*[#  31]+0.040*[#  19]+0.040*[#  20]+0.040*[#  21]+
          +0.036*[#   9]+0.036*[#  12]+0.013*[#   2]+
    |psi|^2 = 0.999
==== e(  10) =    -4.81223 eV ==== 
     psi = 0.416*[#  27]+0.416*[#  31]+0.042*[#   6]+0.042*[#   7]+0.042*[#   8]+
          +0.012*[#  22]+0.012*[#  25]+0.012*[#  15]+
    |psi|^2 = 0.999
==== e(  11) =     5.32786 eV ==== 
     psi = 0.208*[#  10]+0.208*[#  11]+0.208*[#  13]+0.051*[#   2]+0.043*[#  28]+
          +0.043*[#  29]+0.043*[#  30]+0.043*[#  32]+0.043*[#  33]+0.043*[#  34]+
          +0.017*[#  19]+0.017*[#  20]+0.017*[#  21]+0.003*[#   9]+0.003*[#  12]+
          +0.003*[#  27]+0.003*[#  31]+0.002*[#   1]+
    |psi|^2 = 1.000
==== e(  12) =     5.92406 eV ==== 
     psi = 0.206*[#   9]+0.206*[#  12]+0.068*[#  10]+0.068*[#  11]+0.068*[#  13]+
          +0.048*[#  28]+0.048*[#  29]+0.048*[#  30]+0.048*[#  32]+0.048*[#  33]+
          +0.048*[#  34]+0.025*[#  19]+0.025*[#  20]+0.025*[#  21]+0.005*[#   2]+
          +0.005*[#  27]+0.005*[#  31]+0.001*[#  16]+0.001*[#  17]+0.001*[#  18]+
    |psi|^2 = 1.000
==== e(  13) =     6.26723 eV ==== 
     psi = 0.354*[#   9]+0.354*[#  12]+0.038*[#  28]+0.038*[#  29]+0.038*[#  30]+
          +0.038*[#  32]+0.038*[#  33]+0.038*[#  34]+0.018*[#  10]+0.018*[#  11]+
          +0.018*[#  13]+0.004*[#  19]+0.004*[#  20]+0.004*[#  21]+
    |psi|^2 = 1.000
==== e(  14) =     7.22578 eV ==== 
     psi = 0.111*[#  28]+0.111*[#  29]+0.111*[#  30]+0.111*[#  32]+0.111*[#  33]+
          +0.111*[#  34]+0.092*[#  15]+0.047*[#   6]+0.047*[#   7]+0.047*[#   8]+
          +0.024*[#  23]+0.024*[#  24]+0.024*[#  26]+0.005*[#  22]+0.005*[#  25]+
          +0.004*[#  27]+0.004*[#  31]+0.004*[#  14]+0.001*[#   3]+0.001*[#   4]+
          +0.001*[#   5]+
    |psi|^2 = 0.999
==== e(  15) =     7.71680 eV ==== 
     psi = 0.220*[#  10]+0.220*[#  11]+0.220*[#  13]+0.127*[#   9]+0.127*[#  12]+
          +0.014*[#  27]+0.014*[#  31]+0.008*[#  28]+0.008*[#  29]+0.008*[#  30]+
          +0.008*[#  32]+0.008*[#  33]+0.008*[#  34]+0.004*[#   2]+
    |psi|^2 = 0.998
==== e(  16) =     7.88114 eV ==== 
     psi = 0.306*[#  10]+0.306*[#  11]+0.306*[#  13]+0.040*[#   9]+0.040*[#  12]+
    |psi|^2 = 1.000
==== e(  17) =     8.82651 eV ==== 
     psi = 0.128*[#  28]+0.128*[#  29]+0.128*[#  30]+0.128*[#  32]+0.128*[#  33]+
          +0.128*[#  34]+0.037*[#  22]+0.037*[#  25]+0.024*[#   6]+0.024*[#   7]+
          +0.024*[#   8]+0.022*[#  15]+0.018*[#  23]+0.018*[#  24]+0.018*[#  26]+
          +0.001*[#   3]+0.001*[#   4]+0.001*[#   5]+0.001*[#  27]+0.001*[#  31]+
    |psi|^2 = 0.996
==== e(  18) =     9.50032 eV ==== 
     psi = 0.133*[#  28]+0.133*[#  29]+0.133*[#  30]+0.133*[#  32]+0.133*[#  33]+
          +0.133*[#  34]+0.058*[#  22]+0.058*[#  25]+0.016*[#   6]+0.016*[#   7]+
          +0.016*[#   8]+0.011*[#  23]+0.011*[#  24]+0.011*[#  26]+
    |psi|^2 = 0.998
==== e(  19) =     9.56762 eV ==== 
     psi = 0.155*[#  10]+0.155*[#  11]+0.155*[#  13]+0.069*[#   2]+0.069*[#  28]+
          +0.069*[#  29]+0.069*[#  30]+0.069*[#  32]+0.069*[#  33]+0.069*[#  34]+
          +0.013*[#  19]+0.013*[#  20]+0.013*[#  21]+0.003*[#  27]+0.003*[#  31]+
          +0.002*[#   9]+0.002*[#  12]+
    |psi|^2 = 0.999
==== e(  20) =    11.16368 eV ==== 
     psi = 0.122*[#   9]+0.122*[#  12]+0.099*[#  28]+0.099*[#  29]+0.099*[#  30]+
          +0.099*[#  32]+0.099*[#  33]+0.099*[#  34]+0.021*[#  27]+0.021*[#  31]+
          +0.020*[#  19]+0.020*[#  20]+0.020*[#  21]+0.012*[#  10]+0.012*[#  11]+
          +0.012*[#  13]+0.009*[#   2]+0.001*[#  16]+0.001*[#  17]+0.001*[#  18]+
    |psi|^2 = 0.991
==== e(  21) =    11.73154 eV ==== 
     psi = 0.119*[#  28]+0.119*[#  29]+0.119*[#  30]+0.119*[#  32]+0.119*[#  33]+
          +0.119*[#  34]+0.106*[#   9]+0.106*[#  12]+0.014*[#  19]+0.014*[#  20]+
          +0.014*[#  21]+0.010*[#  10]+0.010*[#  11]+0.010*[#  13]+
    |psi|^2 = 0.996
==== e(  22) =    13.21923 eV ==== 
     psi = 0.293*[#  23]+0.293*[#  24]+0.293*[#  26]+0.016*[#  22]+0.016*[#  25]+
          +0.010*[#  28]+0.010*[#  29]+0.010*[#  30]+0.010*[#  32]+0.010*[#  33]+
          +0.010*[#  34]+0.004*[#  15]+0.003*[#   6]+0.003*[#   7]+0.003*[#   8]+
          +0.003*[#  27]+0.003*[#  31]+
    |psi|^2 = 0.989
==== e(  23) =    14.47680 eV ==== 
     psi = 0.310*[#  23]+0.310*[#  24]+0.310*[#  26]+0.011*[#  28]+0.011*[#  29]+
          +0.011*[#  30]+0.011*[#  32]+0.011*[#  33]+0.011*[#  34]+0.003*[#  15]+
    |psi|^2 = 0.999
==== e(  24) =    14.48201 eV ==== 
     psi = 0.319*[#  23]+0.319*[#  24]+0.319*[#  26]+0.007*[#  28]+0.007*[#  29]+
          +0.007*[#  30]+0.007*[#  32]+0.007*[#  33]+0.007*[#  34]+
    |psi|^2 = 0.999
==== e(  25) =    16.38419 eV ==== 
     psi = 0.440*[#  22]+0.440*[#  25]+0.016*[#  28]+0.016*[#  29]+0.016*[#  30]+
          +0.016*[#  32]+0.016*[#  33]+0.016*[#  34]+0.003*[#  23]+0.003*[#  24]+
          +0.003*[#  26]+0.003*[#   6]+0.003*[#   7]+0.003*[#   8]+
    |psi|^2 = 0.998
==== e(  26) =    16.44425 eV ==== 
     psi = 0.415*[#  22]+0.415*[#  25]+0.024*[#  27]+0.024*[#  31]+0.011*[#  28]+
          +0.011*[#  29]+0.011*[#  30]+0.011*[#  32]+0.011*[#  33]+0.011*[#  34]+
          +0.009*[#   6]+0.009*[#   7]+0.009*[#   8]+0.008*[#  23]+0.008*[#  24]+
          +0.008*[#  26]+
    |psi|^2 = 0.997
==== e(  27) =    20.89561 eV ==== 
     psi = 0.355*[#   2]+0.112*[#  19]+0.112*[#  20]+0.112*[#  21]+0.040*[#  27]+
          +0.040*[#  31]+0.031*[#  28]+0.031*[#  29]+0.031*[#  30]+0.031*[#  32]+
          +0.031*[#  33]+0.031*[#  34]+0.002*[#   9]+0.002*[#  12]+
    |psi|^2 = 0.964
==== e(  28) =    21.31129 eV ==== 
     psi = 0.222*[#  15]+0.145*[#   6]+0.145*[#   7]+0.145*[#   8]+0.040*[#  27]+
          +0.040*[#  31]+0.031*[#  28]+0.031*[#  29]+0.031*[#  30]+0.031*[#  32]+
          +0.031*[#  33]+0.031*[#  34]+0.011*[#  22]+0.011*[#  25]+0.003*[#  23]+
          +0.003*[#  24]+0.003*[#  26]+
    |psi|^2 = 0.955
==== e(  29) =    23.13944 eV ==== 
     psi = 0.373*[#   2]+0.106*[#  19]+0.106*[#  20]+0.106*[#  21]+0.017*[#  28]+
          +0.017*[#  29]+0.017*[#  30]+0.017*[#  32]+0.017*[#  33]+0.017*[#  34]+
          +0.014*[#   1]+0.008*[#  27]+0.008*[#  31]+
    |psi|^2 = 0.826
==== e(  30) =    23.67163 eV ==== 
     psi = 0.512*[#  15]+0.073*[#   6]+0.073*[#   7]+0.073*[#   8]+0.017*[#  28]+
          +0.017*[#  29]+0.017*[#  30]+0.017*[#  32]+0.017*[#  33]+0.017*[#  34]+
          +0.014*[#  14]+0.004*[#  23]+0.004*[#  24]+0.004*[#  26]+0.003*[#  27]+
          +0.003*[#  31]+0.001*[#  22]+0.001*[#  25]+
    |psi|^2 = 0.868
==== e(  31) =    25.17814 eV ==== 
     psi = 0.216*[#  19]+0.216*[#  20]+0.216*[#  21]+0.086*[#   2]+0.010*[#  28]+
          +0.010*[#  29]+0.010*[#  30]+0.010*[#  32]+0.010*[#  33]+0.010*[#  34]+
          +0.006*[#   1]+0.002*[#  16]+0.002*[#  17]+0.002*[#  18]+0.001*[#  10]+
          +0.001*[#  11]+0.001*[#  13]+
    |psi|^2 = 0.808
==== e(  32) =    25.43412 eV ==== 
     psi = 0.221*[#   6]+0.221*[#   7]+0.221*[#   8]+0.091*[#  15]+0.008*[#  28]+
          +0.008*[#  29]+0.008*[#  30]+0.008*[#  32]+0.008*[#  33]+0.008*[#  34]+
          +0.006*[#  23]+0.006*[#  24]+0.006*[#  26]+0.005*[#  14]+0.002*[#   3]+
          +0.002*[#   4]+0.002*[#   5]+
    |psi|^2 = 0.831
==== e(  33) =    29.95340 eV ==== 
     psi = 0.241*[#   6]+0.241*[#   7]+0.241*[#   8]+0.008*[#  28]+0.008*[#  29]+
          +0.008*[#  30]+0.008*[#  32]+0.008*[#  33]+0.008*[#  34]+0.002*[#   3]+
          +0.002*[#   4]+0.002*[#   5]+
    |psi|^2 = 0.777
==== e(  34) =    30.39775 eV ==== 
     psi = 0.238*[#  19]+0.238*[#  20]+0.238*[#  21]+0.007*[#  28]+0.007*[#  29]+
          +0.007*[#  30]+0.007*[#  32]+0.007*[#  33]+0.007*[#  34]+0.002*[#  16]+
          +0.002*[#  17]+0.002*[#  18]+
    |psi|^2 = 0.762
==== e(  35) =    32.12349 eV ==== 
     psi = 0.066*[#  19]+0.066*[#  20]+0.066*[#  21]+0.005*[#  27]+0.005*[#  31]+
          +0.004*[#   2]+0.003*[#  28]+0.003*[#  29]+0.003*[#  30]+0.003*[#  32]+
          +0.003*[#  33]+0.003*[#  34]+
    |psi|^2 = 0.231

 k =   0.1666666667  0.1666666667 -0.1666666667
==== e(   1) =   -76.42218 eV ==== 
     psi = 0.943*[#   1]+0.010*[#   6]+0.010*[#   7]+0.010*[#   8]+0.007*[#  19]+
          +0.007*[#  20]+0.007*[#  21]+0.002*[#   2]+0.001*[#  15]+
    |psi|^2 = 1.000
==== e(   2) =   -72.30194 eV ==== 
     psi = 0.943*[#  14]+0.010*[#  19]+0.010*[#  20]+0.010*[#  21]+0.007*[#   6]+
          +0.007*[#   7]+0.007*[#   8]+0.001*[#   2]+0.001*[#  15]+
    |psi|^2 = 1.000
==== e(   3) =   -42.21751 eV ==== 
     psi = 0.330*[#   3]+0.330*[#   4]+0.330*[#   5]+0.002*[#   2]+
    |psi|^2 = 0.998
==== e(   4) =   -42.19608 eV ==== 
     psi = 0.328*[#   3]+0.328*[#   4]+0.328*[#   5]+0.004*[#   6]+0.004*[#   7]+
          +0.004*[#   8]+
    |psi|^2 = 0.999
==== e(   5) =   -41.78680 eV ==== 
     psi = 0.328*[#   3]+0.328*[#   4]+0.328*[#   5]+0.004*[#  19]+0.004*[#  20]+
          +0.004*[#  21]+
    |psi|^2 = 0.998
==== e(   6) =   -38.14924 eV ==== 
     psi = 0.330*[#  16]+0.330*[#  17]+0.330*[#  18]+0.002*[#  15]+
    |psi|^2 = 0.998
==== e(   7) =   -38.12730 eV ==== 
     psi = 0.329*[#  16]+0.329*[#  17]+0.329*[#  18]+0.003*[#  19]+0.003*[#  20]+
          +0.003*[#  21]+
    |psi|^2 = 0.999
==== e(   8) =   -37.96837 eV ==== 
     psi = 0.328*[#  16]+0.328*[#  17]+0.328*[#  18]+0.004*[#   6]+0.004*[#   7]+
          +0.004*[#   8]+
    |psi|^2 = 0.998
==== e(   9) =    -5.86631 eV ==== 
     psi = 0.304*[#  27]+0.304*[#  31]+0.081*[#   2]+0.077*[#  15]+0.036*[#   6]+
          +0.036*[#   7]+0.036*[#   8]+0.036*[#  19]+0.036*[#  20]+0.036*[#  21]+
          +0.008*[#  14]+0.008*[#   1]+
    |psi|^2 = 1.000
==== e(  10) =    -4.99430 eV ==== 
     psi = 0.396*[#  27]+0.396*[#  31]+0.029*[#   6]+0.029*[#   7]+0.029*[#   8]+
          +0.028*[#  19]+0.028*[#  20]+0.028*[#  21]+0.009*[#   9]+0.009*[#  12]+
          +0.003*[#  22]+0.003*[#  25]+0.003*[#  15]+0.003*[#   2]+
    |psi|^2 = 0.999
==== e(  11) =     5.38202 eV ==== 
     psi = 0.151*[#  10]+0.151*[#  11]+0.151*[#  13]+0.062*[#  28]+0.062*[#  29]+
          +0.062*[#  30]+0.062*[#  32]+0.062*[#  33]+0.062*[#  34]+0.052*[#  15]+
          +0.050*[#   2]+0.009*[#   6]+0.009*[#   7]+0.009*[#   8]+0.007*[#  23]+
          +0.007*[#  24]+0.007*[#  26]+0.007*[#  19]+0.007*[#  20]+0.007*[#  21]+
          +0.002*[#   1]+0.002*[#  14]+0.002*[#  27]+0.002*[#  31]+
    |psi|^2 = 1.000
==== e(  12) =     5.89020 eV ==== 
     psi = 0.256*[#   9]+0.256*[#  12]+0.086*[#  10]+0.086*[#  11]+0.086*[#  13]+
          +0.033*[#  28]+0.033*[#  29]+0.033*[#  30]+0.033*[#  32]+0.033*[#  33]+
          +0.033*[#  34]+0.004*[#  19]+0.004*[#  20]+0.004*[#  21]+0.003*[#   6]+
          +0.003*[#   7]+0.003*[#   8]+0.002*[#  27]+0.002*[#  31]+0.001*[#  22]+
          +0.001*[#  25]+
    |psi|^2 = 1.000
==== e(  13) =     6.13040 eV ==== 
     psi = 0.349*[#   9]+0.349*[#  12]+0.033*[#  10]+0.033*[#  11]+0.033*[#  13]+
          +0.032*[#  28]+0.032*[#  29]+0.032*[#  30]+0.032*[#  32]+0.032*[#  33]+
          +0.032*[#  34]+0.002*[#  22]+0.002*[#  25]+
    |psi|^2 = 1.000
==== e(  14) =     7.17326 eV ==== 
     psi = 0.208*[#  10]+0.208*[#  11]+0.208*[#  13]+0.117*[#   9]+0.117*[#  12]+
          +0.018*[#  28]+0.018*[#  29]+0.018*[#  30]+0.018*[#  32]+0.018*[#  33]+
          +0.018*[#  34]+0.009*[#   2]+0.005*[#  15]+0.005*[#  27]+0.005*[#  31]+
          +0.003*[#  23]+0.003*[#  24]+0.003*[#  26]+
    |psi|^2 = 0.999
==== e(  15) =     7.40131 eV ==== 
     psi = 0.281*[#  10]+0.281*[#  11]+0.281*[#  13]+0.049*[#   9]+0.049*[#  12]+
          +0.008*[#  28]+0.008*[#  29]+0.008*[#  30]+0.008*[#  32]+0.008*[#  33]+
          +0.008*[#  34]+0.002*[#  22]+0.002*[#  25]+0.002*[#  23]+0.002*[#  24]+
          +0.002*[#  26]+
    |psi|^2 = 1.000
==== e(  16) =     8.70512 eV ==== 
     psi = 0.160*[#  10]+0.160*[#  11]+0.160*[#  13]+0.063*[#   2]+0.056*[#  28]+
          +0.056*[#  29]+0.056*[#  30]+0.056*[#  32]+0.056*[#  33]+0.056*[#  34]+
          +0.018*[#  23]+0.018*[#  24]+0.018*[#  26]+0.014*[#  15]+0.009*[#   9]+
          +0.009*[#  12]+0.005*[#  27]+0.005*[#  31]+0.004*[#  19]+0.004*[#  20]+
          +0.004*[#  21]+0.003*[#   6]+0.003*[#   7]+0.003*[#   8]+
    |psi|^2 = 0.999
==== e(  17) =     9.60113 eV ==== 
     psi = 0.117*[#  28]+0.117*[#  29]+0.117*[#  30]+0.117*[#  32]+0.117*[#  33]+
          +0.117*[#  34]+0.059*[#  15]+0.023*[#  27]+0.023*[#  31]+0.022*[#   2]+
          +0.020*[#  10]+0.020*[#  11]+0.020*[#  13]+0.015*[#  22]+0.015*[#  25]+
          +0.012*[#   9]+0.012*[#  12]+0.012*[#  23]+0.012*[#  24]+0.012*[#  26]+
          +0.003*[#   6]+0.003*[#   7]+0.003*[#   8]+0.002*[#  19]+0.002*[#  20]+
          +0.002*[#  21]+0.001*[#   1]+0.001*[#  14]+
    |psi|^2 = 0.996
==== e(  18) =    10.05159 eV ==== 
     psi = 0.118*[#  28]+0.118*[#  29]+0.118*[#  30]+0.118*[#  32]+0.118*[#  33]+
          +0.118*[#  34]+0.044*[#  22]+0.044*[#  25]+0.032*[#  10]+0.032*[#  11]+
          +0.032*[#  13]+0.014*[#  15]+0.011*[#   9]+0.011*[#  12]+0.011*[#   2]+
          +0.010*[#  27]+0.010*[#  31]+0.006*[#   6]+0.006*[#   7]+0.006*[#   8]+
          +0.003*[#  19]+0.003*[#  20]+0.003*[#  21]+0.001*[#  14]+
    |psi|^2 = 0.996
==== e(  19) =    10.30441 eV ==== 
     psi = 0.130*[#  28]+0.130*[#  29]+0.130*[#  30]+0.130*[#  32]+0.130*[#  33]+
          +0.130*[#  34]+0.065*[#  22]+0.065*[#  25]+0.017*[#  10]+0.017*[#  11]+
          +0.017*[#  13]+0.008*[#   9]+0.008*[#  12]+0.004*[#   6]+0.004*[#   7]+
          +0.004*[#   8]+
    |psi|^2 = 0.996
==== e(  20) =    11.64795 eV ==== 
     psi = 0.128*[#  28]+0.128*[#  29]+0.128*[#  30]+0.128*[#  32]+0.128*[#  33]+
          +0.128*[#  34]+0.081*[#   9]+0.081*[#  12]+0.007*[#  19]+0.007*[#  20]+
          +0.007*[#  21]+0.005*[#  27]+0.005*[#  31]+0.005*[#  10]+0.005*[#  11]+
          +0.005*[#  13]+0.004*[#  23]+0.004*[#  24]+0.004*[#  26]+0.003*[#   2]+
          +0.001*[#  22]+0.001*[#  25]+
    |psi|^2 = 0.993
==== e(  21) =    11.67172 eV ==== 
     psi = 0.123*[#  28]+0.123*[#  29]+0.123*[#  30]+0.123*[#  32]+0.123*[#  33]+
          +0.123*[#  34]+0.090*[#   9]+0.090*[#  12]+0.017*[#  23]+0.017*[#  24]+
          +0.017*[#  26]+0.006*[#  19]+0.006*[#  20]+0.006*[#  21]+0.004*[#  22]+
          +0.004*[#  25]+
    |psi|^2 = 0.995
==== e(  22) =    13.59629 eV ==== 
     psi = 0.298*[#  23]+0.298*[#  24]+0.298*[#  26]+0.020*[#  22]+0.020*[#  25]+
          +0.006*[#  28]+0.006*[#  29]+0.006*[#  30]+0.006*[#  32]+0.006*[#  33]+
          +0.006*[#  34]+0.003*[#   6]+0.003*[#   7]+0.003*[#   8]+0.003*[#  15]+
          +0.003*[#  27]+0.003*[#  31]+
    |psi|^2 = 0.994
==== e(  23) =    13.95845 eV ==== 
     psi = 0.299*[#  23]+0.299*[#  24]+0.299*[#  26]+0.011*[#  28]+0.011*[#  29]+
          +0.011*[#  30]+0.011*[#  32]+0.011*[#  33]+0.011*[#  34]+0.007*[#   2]+
          +0.003*[#  22]+0.003*[#  25]+0.003*[#  27]+0.003*[#  31]+0.002*[#  10]+
          +0.002*[#  11]+0.002*[#  13]+0.001*[#   6]+0.001*[#   7]+0.001*[#   8]+
          +0.001*[#  19]+0.001*[#  20]+0.001*[#  21]+
    |psi|^2 = 0.996
==== e(  24) =    13.97764 eV ==== 
     psi = 0.304*[#  23]+0.304*[#  24]+0.304*[#  26]+0.014*[#  22]+0.014*[#  25]+
          +0.008*[#  28]+0.008*[#  29]+0.008*[#  30]+0.008*[#  32]+0.008*[#  33]+
          +0.008*[#  34]+
    |psi|^2 = 0.997
==== e(  25) =    16.29534 eV ==== 
     psi = 0.236*[#  22]+0.236*[#  25]+0.071*[#  27]+0.071*[#  31]+0.062*[#   2]+
          +0.053*[#  15]+0.023*[#  28]+0.023*[#  29]+0.023*[#  30]+0.023*[#  32]+
          +0.023*[#  33]+0.023*[#  34]+0.018*[#   6]+0.018*[#   7]+0.018*[#   8]+
          +0.017*[#  19]+0.017*[#  20]+0.017*[#  21]+0.005*[#   1]+0.003*[#  14]+
          +0.003*[#  23]+0.003*[#  24]+0.003*[#  26]+
    |psi|^2 = 0.994
==== e(  26) =    16.36430 eV ==== 
     psi = 0.412*[#  22]+0.412*[#  25]+0.023*[#  28]+0.023*[#  29]+0.023*[#  30]+
          +0.023*[#  32]+0.023*[#  33]+0.023*[#  34]+0.008*[#  23]+0.008*[#  24]+
          +0.008*[#  26]+0.002*[#   6]+0.002*[#   7]+0.002*[#   8]+0.002*[#   9]+
          +0.002*[#  12]+
    |psi|^2 = 0.997
==== e(  27) =    16.37982 eV ==== 
     psi = 0.167*[#  22]+0.167*[#  25]+0.091*[#   2]+0.087*[#  27]+0.087*[#  31]+
          +0.069*[#  15]+0.028*[#  28]+0.028*[#  29]+0.028*[#  30]+0.028*[#  32]+
          +0.028*[#  33]+0.028*[#  34]+0.020*[#   6]+0.020*[#   7]+0.020*[#   8]+
          +0.019*[#  19]+0.019*[#  20]+0.019*[#  21]+0.010*[#  23]+0.010*[#  24]+
          +0.010*[#  26]+0.006*[#  14]+0.004*[#   1]+
    |psi|^2 = 0.995
==== e(  28) =    20.54483 eV ==== 
     psi = 0.102*[#   6]+0.102*[#   7]+0.102*[#   8]+0.098*[#  19]+0.098*[#  20]+
          +0.098*[#  21]+0.065*[#  27]+0.065*[#  31]+0.026*[#  15]+0.021*[#  28]+
          +0.021*[#  29]+0.021*[#  30]+0.021*[#  32]+0.021*[#  33]+0.021*[#  34]+
          +0.020*[#   2]+0.007*[#  22]+0.007*[#  25]+0.002*[#  23]+0.002*[#  24]+
          +0.002*[#  26]+0.002*[#   9]+0.002*[#  12]+0.001*[#  14]+
    |psi|^2 = 0.929
==== e(  29) =    23.17799 eV ==== 
     psi = 0.321*[#  15]+0.304*[#   2]+0.030*[#  28]+0.030*[#  29]+0.030*[#  30]+
          +0.030*[#  32]+0.030*[#  33]+0.030*[#  34]+0.021*[#  19]+0.021*[#  20]+
          +0.021*[#  21]+0.015*[#   6]+0.015*[#   7]+0.015*[#   8]+0.007*[#   1]+
          +0.004*[#  14]+0.002*[#  23]+0.002*[#  24]+0.002*[#  26]+0.001*[#  27]+
          +0.001*[#  31]+
    |psi|^2 = 0.930
==== e(  30) =    26.53718 eV ==== 
     psi = 0.146*[#   6]+0.146*[#   7]+0.146*[#   8]+0.108*[#   2]+0.051*[#  19]+
          +0.051*[#  20]+0.051*[#  21]+0.008*[#   1]+0.005*[#  15]+0.003*[#  28]+
          +0.003*[#  29]+0.003*[#  30]+0.003*[#  32]+0.003*[#  33]+0.003*[#  34]+
          +0.002*[#  23]+0.002*[#  24]+0.002*[#  26]+0.002*[#   3]+0.002*[#   4]+
          +0.002*[#   5]+
    |psi|^2 = 0.744
==== e(  31) =    26.75472 eV ==== 
     psi = 0.126*[#  15]+0.078*[#  19]+0.078*[#  20]+0.078*[#  21]+0.021*[#   2]+
          +0.010*[#  14]+0.003*[#   1]+0.003*[#   6]+0.003*[#   7]+0.003*[#   8]+
          +0.002*[#  23]+0.002*[#  24]+0.002*[#  26]+0.002*[#  28]+0.002*[#  29]+
          +0.002*[#  30]+0.002*[#  32]+0.002*[#  33]+0.002*[#  34]+0.001*[#  27]+
          +0.001*[#  31]+
    |psi|^2 = 0.425
==== e(  32) =    29.58296 eV ==== 
     psi = 0.135*[#   6]+0.135*[#   7]+0.135*[#   8]+0.095*[#  19]+0.095*[#  20]+
          +0.095*[#  21]+0.004*[#  28]+0.004*[#  29]+0.004*[#  30]+0.004*[#  32]+
          +0.004*[#  33]+0.004*[#  34]+0.001*[#   3]+0.001*[#   4]+0.001*[#   5]+
    |psi|^2 = 0.722
==== e(  33) =    30.85133 eV ==== 
     psi = 0.055*[#  19]+0.055*[#  20]+0.055*[#  21]+0.031*[#   6]+0.031*[#   7]+
          +0.031*[#   8]+0.002*[#  23]+0.002*[#  24]+0.002*[#  26]+0.001*[#  16]+
          +0.001*[#  17]+0.001*[#  18]+
    |psi|^2 = 0.272
==== e(  34) =    30.92285 eV ==== 
     psi = 0.044*[#  19]+0.044*[#  20]+0.044*[#  21]+0.041*[#   6]+0.041*[#   7]+
          +0.041*[#   8]+0.002*[#  23]+0.002*[#  24]+0.002*[#  26]+0.001*[#   3]+
          +0.001*[#   4]+0.001*[#   5]+0.001*[#  16]+0.001*[#  17]+0.001*[#  18]+
    |psi|^2 = 0.272
==== e(  35) =    33.33912 eV ==== 
     psi = 0.055*[#  15]+0.040*[#   2]+0.028*[#   6]+0.028*[#   7]+0.028*[#   8]+
          +0.008*[#  19]+0.008*[#  20]+0.008*[#  21]+0.006*[#  14]+0.005*[#   1]+
          +0.002*[#  27]+0.002*[#  31]+
    |psi|^2 = 0.226

 k =   0.4166666667  0.0833333333 -0.2500000000
==== e(   1) =   -76.42500 eV ==== 
     psi = 0.944*[#   1]+0.009*[#   6]+0.009*[#   7]+0.009*[#   8]+0.007*[#   2]+
          +0.006*[#  19]+0.006*[#  20]+0.006*[#  21]+
    |psi|^2 = 1.000
==== e(   2) =   -72.30449 eV ==== 
     psi = 0.944*[#  14]+0.009*[#  19]+0.009*[#  20]+0.009*[#  21]+0.006*[#  15]+
          +0.006*[#   6]+0.006*[#   7]+0.006*[#   8]+
    |psi|^2 = 1.000
==== e(   3) =   -42.25944 eV ==== 
     psi = 0.330*[#   3]+0.330*[#   4]+0.330*[#   5]+0.001*[#  19]+0.001*[#  20]+
          +0.001*[#  21]+0.001*[#   2]+
    |psi|^2 = 0.998
==== e(   4) =   -42.22537 eV ==== 
     psi = 0.329*[#   3]+0.329*[#   4]+0.329*[#   5]+0.003*[#   6]+0.003*[#   7]+
          +0.003*[#   8]+
    |psi|^2 = 0.998
==== e(   5) =   -41.78834 eV ==== 
     psi = 0.329*[#   3]+0.329*[#   4]+0.329*[#   5]+0.002*[#  19]+0.002*[#  20]+
          +0.002*[#  21]+
    |psi|^2 = 0.998
==== e(   6) =   -38.19295 eV ==== 
     psi = 0.329*[#  16]+0.329*[#  17]+0.329*[#  18]+0.001*[#   6]+0.001*[#   7]+
          +0.001*[#   8]+0.001*[#  15]+
    |psi|^2 = 0.998
==== e(   7) =   -38.15437 eV ==== 
     psi = 0.329*[#  16]+0.329*[#  17]+0.329*[#  18]+0.003*[#  19]+0.003*[#  20]+
          +0.003*[#  21]+
    |psi|^2 = 0.998
==== e(   8) =   -37.97119 eV ==== 
     psi = 0.329*[#  16]+0.329*[#  17]+0.329*[#  18]+0.002*[#   6]+0.002*[#   7]+
          +0.002*[#   8]+
    |psi|^2 = 0.998
==== e(   9) =    -5.49189 eV ==== 
     psi = 0.331*[#  27]+0.331*[#  31]+0.041*[#  19]+0.041*[#  20]+0.041*[#  21]+
          +0.041*[#   6]+0.041*[#   7]+0.041*[#   8]+0.035*[#  15]+0.032*[#   2]+
          +0.006*[#  14]+0.005*[#   1]+0.004*[#   9]+0.004*[#  12]+
    |psi|^2 = 1.000
==== e(  10) =    -5.04332 eV ==== 
     psi = 0.409*[#  27]+0.409*[#  31]+0.021*[#   6]+0.021*[#   7]+0.021*[#   8]+
          +0.020*[#  19]+0.020*[#  20]+0.020*[#  21]+0.018*[#   9]+0.018*[#  12]+
          +0.007*[#   2]+0.007*[#  22]+0.007*[#  25]+
    |psi|^2 = 0.999
==== e(  11) =     5.64563 eV ==== 
     psi = 0.158*[#   9]+0.158*[#  12]+0.102*[#  10]+0.102*[#  11]+0.102*[#  13]+
          +0.047*[#  28]+0.047*[#  29]+0.047*[#  30]+0.047*[#  32]+0.047*[#  33]+
          +0.047*[#  34]+0.034*[#  15]+0.009*[#  19]+0.009*[#  20]+0.009*[#  21]+
          +0.008*[#   6]+0.008*[#   7]+0.008*[#   8]+0.002*[#  14]+0.002*[#   2]+
          +0.001*[#  23]+0.001*[#  24]+0.001*[#  26]+
    |psi|^2 = 1.000
==== e(  12) =     6.08820 eV ==== 
     psi = 0.240*[#   9]+0.240*[#  12]+0.090*[#  10]+0.090*[#  11]+0.090*[#  13]+
          +0.036*[#  28]+0.036*[#  29]+0.036*[#  30]+0.036*[#  32]+0.036*[#  33]+
          +0.036*[#  34]+0.006*[#  15]+0.005*[#  19]+0.005*[#  20]+0.005*[#  21]+
          +0.002*[#  27]+0.002*[#  31]+0.002*[#   6]+0.002*[#   7]+0.002*[#   8]+
    |psi|^2 = 1.000
==== e(  13) =     6.43037 eV ==== 
     psi = 0.136*[#  10]+0.136*[#  11]+0.136*[#  13]+0.097*[#   9]+0.097*[#  12]+
          +0.047*[#  28]+0.047*[#  29]+0.047*[#  30]+0.047*[#  32]+0.047*[#  33]+
          +0.047*[#  34]+0.029*[#   2]+0.015*[#   6]+0.015*[#   7]+0.015*[#   8]+
          +0.005*[#  23]+0.005*[#  24]+0.005*[#  26]+0.004*[#  19]+0.004*[#  20]+
          +0.004*[#  21]+0.003*[#  27]+0.003*[#  31]+0.002*[#  22]+0.002*[#  25]+
          +0.002*[#   1]+
    |psi|^2 = 0.999
==== e(  14) =     6.86684 eV ==== 
     psi = 0.164*[#   9]+0.164*[#  12]+0.152*[#  10]+0.152*[#  11]+0.152*[#  13]+
          +0.027*[#  28]+0.027*[#  29]+0.027*[#  30]+0.027*[#  32]+0.027*[#  33]+
          +0.027*[#  34]+0.008*[#  27]+0.008*[#  31]+0.008*[#  22]+0.008*[#  25]+
          +0.003*[#   2]+0.003*[#  19]+0.003*[#  20]+0.003*[#  21]+0.002*[#   6]+
          +0.002*[#   7]+0.002*[#   8]+0.001*[#  23]+0.001*[#  24]+0.001*[#  26]+
    |psi|^2 = 0.999
==== e(  15) =     6.99292 eV ==== 
     psi = 0.192*[#  10]+0.192*[#  11]+0.192*[#  13]+0.059*[#   9]+0.059*[#  12]+
          +0.037*[#  28]+0.037*[#  29]+0.037*[#  30]+0.037*[#  32]+0.037*[#  33]+
          +0.037*[#  34]+0.023*[#   2]+0.010*[#  27]+0.010*[#  31]+0.007*[#  15]+
          +0.005*[#  19]+0.005*[#  20]+0.005*[#  21]+0.005*[#  22]+0.005*[#  25]+
          +0.004*[#  23]+0.004*[#  24]+0.004*[#  26]+
    |psi|^2 = 0.999
==== e(  16) =     8.46064 eV ==== 
     psi = 0.139*[#  10]+0.139*[#  11]+0.139*[#  13]+0.065*[#  28]+0.065*[#  29]+
          +0.065*[#  30]+0.065*[#  32]+0.065*[#  33]+0.065*[#  34]+0.061*[#   2]+
          +0.011*[#  23]+0.011*[#  24]+0.011*[#  26]+0.009*[#  22]+0.009*[#  25]+
          +0.008*[#   6]+0.008*[#   7]+0.008*[#   8]+0.008*[#  27]+0.008*[#  31]+
          +0.006*[#  19]+0.006*[#  20]+0.006*[#  21]+0.005*[#   9]+0.005*[#  12]+
          +0.002*[#   1]+0.002*[#  15]+
    |psi|^2 = 0.998
==== e(  17) =     9.22793 eV ==== 
     psi = 0.120*[#  28]+0.120*[#  29]+0.120*[#  30]+0.120*[#  32]+0.120*[#  33]+
          +0.120*[#  34]+0.023*[#  22]+0.023*[#  25]+0.021*[#  10]+0.021*[#  11]+
          +0.021*[#  13]+0.019*[#  23]+0.019*[#  24]+0.019*[#  26]+0.018*[#   6]+
          +0.018*[#   7]+0.018*[#   8]+0.009*[#  19]+0.009*[#  20]+0.009*[#  21]+
          +0.008*[#   9]+0.008*[#  12]+0.007*[#   2]+0.004*[#  27]+0.004*[#  31]+
          +0.002*[#  15]+
    |psi|^2 = 0.997
==== e(  18) =     9.47102 eV ==== 
     psi = 0.116*[#  10]+0.116*[#  11]+0.116*[#  13]+0.076*[#  28]+0.076*[#  29]+
          +0.076*[#  30]+0.076*[#  32]+0.076*[#  33]+0.076*[#  34]+0.046*[#  15]+
          +0.015*[#   9]+0.015*[#  12]+0.015*[#  19]+0.015*[#  20]+0.015*[#  21]+
          +0.013*[#  27]+0.013*[#  31]+0.009*[#  23]+0.009*[#  24]+0.009*[#  26]+
          +0.004*[#   2]+0.004*[#  22]+0.004*[#  25]+0.002*[#  14]+0.001*[#   6]+
          +0.001*[#   7]+0.001*[#   8]+
    |psi|^2 = 0.998
==== e(  19) =    10.36205 eV ==== 
     psi = 0.122*[#  28]+0.122*[#  29]+0.122*[#  30]+0.122*[#  32]+0.122*[#  33]+
          +0.122*[#  34]+0.037*[#  10]+0.037*[#  11]+0.037*[#  13]+0.025*[#  22]+
          +0.025*[#  25]+0.020*[#   9]+0.020*[#  12]+0.013*[#  15]+0.008*[#   6]+
          +0.008*[#   7]+0.008*[#   8]+0.004*[#  23]+0.004*[#  24]+0.004*[#  26]+
          +0.003*[#  19]+0.003*[#  20]+0.003*[#  21]+0.001*[#  27]+0.001*[#  31]+
    |psi|^2 = 0.997
==== e(  20) =    10.98279 eV ==== 
     psi = 0.103*[#   9]+0.103*[#  12]+0.102*[#  28]+0.102*[#  29]+0.102*[#  30]+
          +0.102*[#  32]+0.102*[#  33]+0.102*[#  34]+0.029*[#  22]+0.029*[#  25]+
          +0.019*[#  15]+0.013*[#  23]+0.013*[#  24]+0.013*[#  26]+0.010*[#  27]+
          +0.010*[#  31]+0.005*[#   6]+0.005*[#   7]+0.005*[#   8]+0.004*[#  10]+
          +0.004*[#  11]+0.004*[#  13]+0.003*[#  19]+0.003*[#  20]+0.003*[#  21]+
          +0.001*[#   2]+
    |psi|^2 = 0.995
==== e(  21) =    11.53369 eV ==== 
     psi = 0.115*[#  28]+0.115*[#  29]+0.115*[#  30]+0.115*[#  32]+0.115*[#  33]+
          +0.115*[#  34]+0.097*[#   9]+0.097*[#  12]+0.020*[#  22]+0.020*[#  25]+
          +0.007*[#  27]+0.007*[#  31]+0.006*[#  19]+0.006*[#  20]+0.006*[#  21]+
          +0.005*[#  10]+0.005*[#  11]+0.005*[#  13]+0.004*[#  23]+0.004*[#  24]+
          +0.004*[#  26]+0.003*[#  15]+0.002*[#   6]+0.002*[#   7]+0.002*[#   8]+
    |psi|^2 = 0.994
==== e(  22) =    13.76479 eV ==== 
     psi = 0.309*[#  23]+0.309*[#  24]+0.309*[#  26]+0.009*[#  28]+0.009*[#  29]+
          +0.009*[#  30]+0.009*[#  32]+0.009*[#  33]+0.009*[#  34]+0.002*[#  22]+
          +0.002*[#  25]+0.001*[#  15]+0.001*[#  10]+0.001*[#  11]+0.001*[#  13]+
    |psi|^2 = 0.994
==== e(  23) =    13.89548 eV ==== 
     psi = 0.281*[#  23]+0.281*[#  24]+0.281*[#  26]+0.021*[#  28]+0.021*[#  29]+
          +0.021*[#  30]+0.021*[#  32]+0.021*[#  33]+0.021*[#  34]+0.007*[#  22]+
          +0.007*[#  25]+0.002*[#   9]+0.002*[#  12]+0.001*[#   2]+
    |psi|^2 = 0.994
==== e(  24) =    14.31744 eV ==== 
     psi = 0.308*[#  23]+0.308*[#  24]+0.308*[#  26]+0.009*[#  22]+0.009*[#  25]+
          +0.007*[#  28]+0.007*[#  29]+0.007*[#  30]+0.007*[#  32]+0.007*[#  33]+
          +0.007*[#  34]+0.004*[#   2]+0.003*[#  27]+0.003*[#  31]+
    |psi|^2 = 0.999
==== e(  25) =    16.09303 eV ==== 
     psi = 0.389*[#  22]+0.389*[#  25]+0.043*[#   2]+0.021*[#  27]+0.021*[#  31]+
          +0.013*[#  28]+0.013*[#  29]+0.013*[#  30]+0.013*[#  32]+0.013*[#  33]+
          +0.013*[#  34]+0.009*[#  23]+0.009*[#  24]+0.009*[#  26]+0.005*[#  19]+
          +0.005*[#  20]+0.005*[#  21]+0.003*[#   6]+0.003*[#   7]+0.003*[#   8]+
          +0.002*[#   9]+0.002*[#  12]+
    |psi|^2 = 0.997
==== e(  26) =    16.43120 eV ==== 
     psi = 0.415*[#  22]+0.415*[#  25]+0.019*[#  28]+0.019*[#  29]+0.019*[#  30]+
          +0.019*[#  32]+0.019*[#  33]+0.019*[#  34]+0.009*[#  27]+0.009*[#  31]+
          +0.006*[#  23]+0.006*[#  24]+0.006*[#  26]+0.004*[#   6]+0.004*[#   7]+
          +0.004*[#   8]+0.001*[#   9]+0.001*[#  12]+
    |psi|^2 = 0.997
==== e(  27) =    18.44076 eV ==== 
     psi = 0.094*[#  27]+0.094*[#  31]+0.083*[#   2]+0.068*[#  15]+0.047*[#  28]+
          +0.047*[#  29]+0.047*[#  30]+0.047*[#  32]+0.047*[#  33]+0.047*[#  34]+
          +0.047*[#   6]+0.047*[#   7]+0.047*[#   8]+0.044*[#  19]+0.044*[#  20]+
          +0.044*[#  21]+0.038*[#  22]+0.038*[#  25]+0.007*[#  14]+0.006*[#   1]+
          +0.002*[#   9]+0.002*[#  12]+
    |psi|^2 = 0.990
==== e(  28) =    21.71562 eV ==== 
     psi = 0.166*[#  15]+0.155*[#   2]+0.060*[#  19]+0.060*[#  20]+0.060*[#  21]+
          +0.059*[#   6]+0.059*[#   7]+0.059*[#   8]+0.034*[#  28]+0.034*[#  29]+
          +0.034*[#  30]+0.034*[#  32]+0.034*[#  33]+0.034*[#  34]+0.029*[#  27]+
          +0.029*[#  31]+0.005*[#  22]+0.005*[#  25]+0.002*[#  23]+0.002*[#  24]+
          +0.002*[#  26]+0.001*[#   9]+0.001*[#  12]+
    |psi|^2 = 0.960
==== e(  29) =    23.55688 eV ==== 
     psi = 0.181*[#   2]+0.156*[#  15]+0.072*[#  19]+0.072*[#  20]+0.072*[#  21]+
          +0.064*[#   6]+0.064*[#   7]+0.064*[#   8]+0.015*[#  28]+0.015*[#  29]+
          +0.015*[#  30]+0.015*[#  32]+0.015*[#  33]+0.015*[#  34]+0.007*[#   1]+
          +0.006*[#  27]+0.006*[#  31]+0.004*[#  14]+0.002*[#  23]+0.002*[#  24]+
          +0.002*[#  26]+
    |psi|^2 = 0.874
==== e(  30) =    24.62170 eV ==== 
     psi = 0.113*[#   6]+0.113*[#   7]+0.113*[#   8]+0.094*[#   2]+0.089*[#  19]+
          +0.089*[#  20]+0.089*[#  21]+0.050*[#  15]+0.011*[#  28]+0.011*[#  29]+
          +0.011*[#  30]+0.011*[#  32]+0.011*[#  33]+0.011*[#  34]+0.005*[#   1]+
          +0.003*[#  23]+0.003*[#  24]+0.003*[#  26]+0.002*[#  14]+0.002*[#  27]+
          +0.002*[#  31]+
    |psi|^2 = 0.844
==== e(  31) =    25.31246 eV ==== 
     psi = 0.080*[#   6]+0.080*[#   7]+0.080*[#   8]+0.072*[#  15]+0.063*[#  19]+
          +0.063*[#  20]+0.063*[#  21]+0.026*[#   2]+0.005*[#  28]+0.005*[#  29]+
          +0.005*[#  30]+0.005*[#  32]+0.005*[#  33]+0.005*[#  34]+0.005*[#  23]+
          +0.005*[#  24]+0.005*[#  26]+0.005*[#  14]+0.002*[#   1]+0.001*[#   3]+
          +0.001*[#   4]+0.001*[#   5]+
    |psi|^2 = 0.588
==== e(  32) =    28.28389 eV ==== 
     psi = 0.218*[#  15]+0.164*[#   2]+0.051*[#  19]+0.051*[#  20]+0.051*[#  21]+
          +0.047*[#   6]+0.047*[#   7]+0.047*[#   8]+0.017*[#  14]+0.015*[#   1]+
          +0.004*[#  27]+0.004*[#  31]+0.003*[#  28]+0.003*[#  29]+0.003*[#  30]+
          +0.003*[#  32]+0.003*[#  33]+0.003*[#  34]+
    |psi|^2 = 0.734
==== e(  33) =    29.51675 eV ==== 
     psi = 0.138*[#  19]+0.138*[#  20]+0.138*[#  21]+0.135*[#   6]+0.135*[#   7]+
          +0.135*[#   8]+0.011*[#  27]+0.011*[#  31]+0.004*[#  28]+0.004*[#  29]+
          +0.004*[#  30]+0.004*[#  32]+0.004*[#  33]+0.004*[#  34]+0.003*[#  15]+
          +0.002*[#   3]+0.002*[#   4]+0.002*[#   5]+0.002*[#  16]+0.002*[#  17]+
          +0.002*[#  18]+0.001*[#   2]+
    |psi|^2 = 0.882
==== e(  34) =    30.98257 eV ==== 
     psi = 0.077*[#  19]+0.077*[#  20]+0.077*[#  21]+0.077*[#   6]+0.077*[#   7]+
          +0.077*[#   8]+0.004*[#  15]+0.003*[#   2]+0.001*[#   3]+0.001*[#   4]+
          +0.001*[#   5]+0.001*[#  16]+0.001*[#  17]+0.001*[#  18]+0.001*[#  28]+
          +0.001*[#  29]+0.001*[#  30]+0.001*[#  32]+0.001*[#  33]+0.001*[#  34]+
          +0.001*[#  23]+0.001*[#  24]+0.001*[#  26]+
    |psi|^2 = 0.492
==== e(  35) =    32.45584 eV ==== 
     psi = 0.056*[#  19]+0.056*[#  20]+0.056*[#  21]+0.042*[#   6]+0.042*[#   7]+
          +0.042*[#   8]+0.002*[#  15]+0.002*[#   2]+
    |psi|^2 = 0.311

 k =  -0.8333333333  0.5000000000  0.1666666667
==== e(   1) =   -76.42644 eV ==== 
     psi = 0.970*[#   1]+0.009*[#   2]+0.003*[#  19]+0.003*[#  20]+0.003*[#  21]+
          +0.002*[#   6]+0.002*[#   7]+0.002*[#   8]+
    |psi|^2 = 1.000
==== e(   2) =   -72.30349 eV ==== 
     psi = 0.971*[#  14]+0.008*[#  15]+0.003*[#   6]+0.003*[#   7]+0.003*[#   8]+
          +0.002*[#  19]+0.002*[#  20]+0.002*[#  21]+
    |psi|^2 = 1.000
==== e(   3) =   -42.28506 eV ==== 
     psi = 0.330*[#   3]+0.330*[#   4]+0.330*[#   5]+
    |psi|^2 = 0.998
==== e(   4) =   -42.24602 eV ==== 
     psi = 0.330*[#   3]+0.330*[#   4]+0.330*[#   5]+0.002*[#   6]+0.002*[#   7]+
          +0.002*[#   8]+
    |psi|^2 = 0.998
==== e(   5) =   -41.78711 eV ==== 
     psi = 0.330*[#   3]+0.330*[#   4]+0.330*[#   5]+0.001*[#   6]+0.001*[#   7]+
          +0.001*[#   8]+
    |psi|^2 = 0.998
==== e(   6) =   -38.22055 eV ==== 
     psi = 0.329*[#  16]+0.329*[#  17]+0.329*[#  18]+
    |psi|^2 = 0.998
==== e(   7) =   -38.17468 eV ==== 
     psi = 0.330*[#  16]+0.330*[#  17]+0.330*[#  18]+0.001*[#  19]+0.001*[#  20]+
          +0.001*[#  21]+
    |psi|^2 = 0.998
==== e(   8) =   -37.97169 eV ==== 
     psi = 0.330*[#  16]+0.330*[#  17]+0.330*[#  18]+
    |psi|^2 = 0.998
==== e(   9) =    -5.26068 eV ==== 
     psi = 0.392*[#  27]+0.392*[#  31]+0.033*[#  19]+0.033*[#  20]+0.033*[#  21]+
          +0.028*[#   9]+0.028*[#  12]+0.012*[#   6]+0.012*[#   7]+0.012*[#   8]+
          +0.008*[#   2]+0.007*[#  15]+0.002*[#  22]+0.002*[#  25]+
    |psi|^2 = 1.000
==== e(  10) =    -4.89948 eV ==== 
     psi = 0.415*[#  27]+0.415*[#  31]+0.032*[#   6]+0.032*[#   7]+0.032*[#   8]+
          +0.010*[#  22]+0.010*[#  25]+0.009*[#  19]+0.009*[#  20]+0.009*[#  21]+
          +0.008*[#   9]+0.008*[#  12]+0.004*[#   2]+0.003*[#  15]+
    |psi|^2 = 0.999
==== e(  11) =     5.67254 eV ==== 
     psi = 0.189*[#  10]+0.189*[#  11]+0.189*[#  13]+0.045*[#   9]+0.045*[#  12]+
          +0.042*[#  28]+0.042*[#  29]+0.042*[#  30]+0.042*[#  32]+0.042*[#  33]+
          +0.042*[#  34]+0.019*[#  15]+0.014*[#   2]+0.008*[#   6]+0.008*[#   7]+
          +0.008*[#   8]+0.008*[#  19]+0.008*[#  20]+0.008*[#  21]+0.001*[#  27]+
          +0.001*[#  31]+0.001*[#  23]+0.001*[#  24]+0.001*[#  26]+
    |psi|^2 = 1.000
==== e(  12) =     5.85272 eV ==== 
     psi = 0.174*[#   9]+0.174*[#  12]+0.068*[#  10]+0.068*[#  11]+0.068*[#  13]+
          +0.055*[#  28]+0.055*[#  29]+0.055*[#  30]+0.055*[#  32]+0.055*[#  33]+
          +0.055*[#  34]+0.021*[#   2]+0.018*[#  19]+0.018*[#  20]+0.018*[#  21]+
          +0.015*[#  15]+0.005*[#   6]+0.005*[#   7]+0.005*[#   8]+0.002*[#  23]+
          +0.002*[#  24]+0.002*[#  26]+0.001*[#   1]+0.001*[#  14]+
    |psi|^2 = 1.000
==== e(  13) =     6.24600 eV ==== 
     psi = 0.269*[#   9]+0.269*[#  12]+0.046*[#  28]+0.046*[#  29]+0.046*[#  30]+
          +0.046*[#  32]+0.046*[#  33]+0.046*[#  34]+0.040*[#  10]+0.040*[#  11]+
          +0.040*[#  13]+0.010*[#  19]+0.010*[#  20]+0.010*[#  21]+0.006*[#  27]+
          +0.006*[#  31]+0.005*[#  15]+0.002*[#   2]+0.002*[#   6]+0.002*[#   7]+
          +0.002*[#   8]+0.002*[#  23]+0.002*[#  24]+0.002*[#  26]+0.001*[#  22]+
          +0.001*[#  25]+
    |psi|^2 = 1.000
==== e(  14) =     7.03811 eV ==== 
     psi = 0.178*[#  10]+0.178*[#  11]+0.178*[#  13]+0.085*[#   9]+0.085*[#  12]+
          +0.034*[#  28]+0.034*[#  29]+0.034*[#  30]+0.034*[#  32]+0.034*[#  33]+
          +0.034*[#  34]+0.014*[#   6]+0.014*[#   7]+0.014*[#   8]+0.009*[#  22]+
          +0.009*[#  25]+0.006*[#  27]+0.006*[#  31]+0.005*[#   2]+0.003*[#  23]+
          +0.003*[#  24]+0.003*[#  26]+0.002*[#  15]+
    |psi|^2 = 0.999
==== e(  15) =     7.24182 eV ==== 
     psi = 0.162*[#  10]+0.162*[#  11]+0.162*[#  13]+0.107*[#   9]+0.107*[#  12]+
          +0.035*[#  28]+0.035*[#  29]+0.035*[#  30]+0.035*[#  32]+0.035*[#  33]+
          +0.035*[#  34]+0.021*[#   2]+0.010*[#  27]+0.010*[#  31]+0.007*[#  22]+
          +0.007*[#  25]+0.005*[#  23]+0.005*[#  24]+0.005*[#  26]+0.003*[#  19]+
          +0.003*[#  20]+0.003*[#  21]+0.002*[#   6]+0.002*[#   7]+0.002*[#   8]+
    |psi|^2 = 0.999
==== e(  16) =     8.19783 eV ==== 
     psi = 0.099*[#  28]+0.099*[#  29]+0.099*[#  30]+0.099*[#  32]+0.099*[#  33]+
          +0.099*[#  34]+0.041*[#  10]+0.041*[#  11]+0.041*[#  13]+0.040*[#  15]+
          +0.024*[#   6]+0.024*[#   7]+0.024*[#   8]+0.023*[#   9]+0.023*[#  12]+
          +0.022*[#  23]+0.022*[#  24]+0.022*[#  26]+0.010*[#  19]+0.010*[#  20]+
          +0.010*[#  21]+0.006*[#  22]+0.006*[#  25]+0.005*[#  27]+0.005*[#  31]+
          +0.001*[#  14]+
    |psi|^2 = 0.998
==== e(  17) =     8.82675 eV ==== 
     psi = 0.153*[#  10]+0.153*[#  11]+0.153*[#  13]+0.065*[#  28]+0.065*[#  29]+
          +0.065*[#  30]+0.065*[#  32]+0.065*[#  33]+0.065*[#  34]+0.043*[#   2]+
          +0.013*[#  22]+0.013*[#  25]+0.009*[#   6]+0.009*[#   7]+0.009*[#   8]+
          +0.007*[#  23]+0.007*[#  24]+0.007*[#  26]+0.005*[#  19]+0.005*[#  20]+
          +0.005*[#  21]+0.005*[#   9]+0.005*[#  12]+0.002*[#  27]+0.002*[#  31]+
    |psi|^2 = 0.999
==== e(  18) =     9.32817 eV ==== 
     psi = 0.100*[#  28]+0.100*[#  29]+0.100*[#  30]+0.100*[#  32]+0.100*[#  33]+
          +0.100*[#  34]+0.078*[#  10]+0.078*[#  11]+0.078*[#  13]+0.027*[#  22]+
          +0.027*[#  25]+0.013*[#   6]+0.013*[#   7]+0.013*[#   8]+0.010*[#   2]+
          +0.008*[#  23]+0.008*[#  24]+0.008*[#  26]+0.008*[#  19]+0.008*[#  20]+
          +0.008*[#  21]+0.002*[#   9]+0.002*[#  12]+
    |psi|^2 = 0.998
==== e(  19) =    10.11578 eV ==== 
     psi = 0.114*[#  28]+0.114*[#  29]+0.114*[#  30]+0.114*[#  32]+0.114*[#  33]+
          +0.114*[#  34]+0.072*[#  10]+0.072*[#  11]+0.072*[#  13]+0.010*[#   6]+
          +0.010*[#   7]+0.010*[#   8]+0.010*[#   2]+0.010*[#  19]+0.010*[#  20]+
          +0.010*[#  21]+0.006*[#  23]+0.006*[#  24]+0.006*[#  26]+0.006*[#  15]+
          +0.001*[#   9]+0.001*[#  12]+
    |psi|^2 = 0.998
==== e(  20) =    10.97110 eV ==== 
     psi = 0.124*[#   9]+0.124*[#  12]+0.095*[#  28]+0.095*[#  29]+0.095*[#  30]+
          +0.095*[#  32]+0.095*[#  33]+0.095*[#  34]+0.024*[#  22]+0.024*[#  25]+
          +0.022*[#  15]+0.015*[#  27]+0.015*[#  31]+0.013*[#  19]+0.013*[#  20]+
          +0.013*[#  21]+0.011*[#  10]+0.011*[#  11]+0.011*[#  13]+
    |psi|^2 = 0.995
==== e(  21) =    11.28407 eV ==== 
     psi = 0.121*[#   9]+0.121*[#  12]+0.102*[#  28]+0.102*[#  29]+0.102*[#  30]+
          +0.102*[#  32]+0.102*[#  33]+0.102*[#  34]+0.021*[#  22]+0.021*[#  25]+
          +0.018*[#  15]+0.009*[#  27]+0.009*[#  31]+0.008*[#  19]+0.008*[#  20]+
          +0.008*[#  21]+0.006*[#  23]+0.006*[#  24]+0.006*[#  26]+0.004*[#  10]+
          +0.004*[#  11]+0.004*[#  13]+0.002*[#   2]+
    |psi|^2 = 0.994
==== e(  22) =    13.64398 eV ==== 
     psi = 0.294*[#  23]+0.294*[#  24]+0.294*[#  26]+0.015*[#  28]+0.015*[#  29]+
          +0.015*[#  30]+0.015*[#  32]+0.015*[#  33]+0.015*[#  34]+0.005*[#  22]+
          +0.005*[#  25]+0.001*[#   9]+0.001*[#  12]+
    |psi|^2 = 0.992
==== e(  23) =    14.23005 eV ==== 
     psi = 0.302*[#  23]+0.302*[#  24]+0.302*[#  26]+0.014*[#  28]+0.014*[#  29]+
          +0.014*[#  30]+0.014*[#  32]+0.014*[#  33]+0.014*[#  34]+0.003*[#  22]+
          +0.003*[#  25]+0.002*[#   2]+
    |psi|^2 = 0.997
==== e(  24) =    14.46749 eV ==== 
     psi = 0.314*[#  23]+0.314*[#  24]+0.314*[#  26]+0.008*[#  28]+0.008*[#  29]+
          +0.008*[#  30]+0.008*[#  32]+0.008*[#  33]+0.008*[#  34]+0.002*[#  22]+
          +0.002*[#  25]+0.001*[#   2]+0.001*[#  15]+
    |psi|^2 = 0.999
==== e(  25) =    16.26742 eV ==== 
     psi = 0.426*[#  22]+0.426*[#  25]+0.031*[#   2]+0.012*[#  28]+0.012*[#  29]+
          +0.012*[#  30]+0.012*[#  32]+0.012*[#  33]+0.012*[#  34]+0.008*[#  27]+
          +0.008*[#  31]+0.005*[#  23]+0.005*[#  24]+0.005*[#  26]+0.002*[#   6]+
          +0.002*[#   7]+0.002*[#   8]+0.002*[#   9]+0.002*[#  12]+
    |psi|^2 = 0.998
==== e(  26) =    16.48728 eV ==== 
     psi = 0.421*[#  22]+0.421*[#  25]+0.015*[#  27]+0.015*[#  31]+0.015*[#  28]+
          +0.015*[#  29]+0.015*[#  30]+0.015*[#  32]+0.015*[#  33]+0.015*[#  34]+
          +0.006*[#   6]+0.006*[#   7]+0.006*[#   8]+0.005*[#  23]+0.005*[#  24]+
          +0.005*[#  26]+
    |psi|^2 = 0.997
==== e(  27) =    20.72748 eV ==== 
     psi = 0.197*[#   2]+0.089*[#  15]+0.053*[#   6]+0.053*[#   7]+0.053*[#   8]+
          +0.049*[#  19]+0.049*[#  20]+0.049*[#  21]+0.046*[#  27]+0.046*[#  31]+
          +0.043*[#  28]+0.043*[#  29]+0.043*[#  30]+0.043*[#  32]+0.043*[#  33]+
          +0.043*[#  34]+0.014*[#  22]+0.014*[#  25]+0.002*[#   9]+0.002*[#  12]+
    |psi|^2 = 0.978
==== e(  28) =    22.51353 eV ==== 
     psi = 0.118*[#  19]+0.118*[#  20]+0.118*[#  21]+0.115*[#   6]+0.115*[#   7]+
          +0.115*[#   8]+0.028*[#  27]+0.028*[#  31]+0.019*[#  28]+0.019*[#  29]+
          +0.019*[#  30]+0.019*[#  32]+0.019*[#  33]+0.019*[#  34]+0.004*[#  23]+
          +0.004*[#  24]+0.004*[#  26]+0.003*[#  22]+0.003*[#  25]+0.002*[#  15]+
    |psi|^2 = 0.893
==== e(  29) =    22.72168 eV ==== 
     psi = 0.378*[#   2]+0.336*[#  15]+0.029*[#  28]+0.029*[#  29]+0.029*[#  30]+
          +0.029*[#  32]+0.029*[#  33]+0.029*[#  34]+0.016*[#   6]+0.016*[#   7]+
          +0.016*[#   8]+0.008*[#   1]+0.006*[#  19]+0.006*[#  20]+0.006*[#  21]+
          +0.002*[#  14]+0.002*[#  27]+0.002*[#  31]+0.002*[#  22]+0.002*[#  25]+
    |psi|^2 = 0.973
==== e(  30) =    24.31476 eV ==== 
     psi = 0.108*[#   6]+0.108*[#   7]+0.108*[#   8]+0.096*[#  19]+0.096*[#  20]+
          +0.096*[#  21]+0.020*[#   2]+0.011*[#  28]+0.011*[#  29]+0.011*[#  30]+
          +0.011*[#  32]+0.011*[#  33]+0.011*[#  34]+0.007*[#  15]+0.002*[#  23]+
          +0.002*[#  24]+0.002*[#  26]+0.001*[#  10]+0.001*[#  11]+0.001*[#  13]+
    |psi|^2 = 0.720
==== e(  31) =    24.71216 eV ==== 
     psi = 0.125*[#  19]+0.125*[#  20]+0.125*[#  21]+0.087*[#   2]+0.085*[#   6]+
          +0.085*[#   7]+0.085*[#   8]+0.012*[#  28]+0.012*[#  29]+0.012*[#  30]+
          +0.012*[#  32]+0.012*[#  33]+0.012*[#  34]+0.006*[#  15]+0.006*[#   1]+
          +0.006*[#  23]+0.006*[#  24]+0.006*[#  26]+0.001*[#  27]+0.001*[#  31]+
    |psi|^2 = 0.828
==== e(  32) =    24.94708 eV ==== 
     psi = 0.377*[#  15]+0.107*[#   2]+0.077*[#   6]+0.077*[#   7]+0.077*[#   8]+
          +0.036*[#  19]+0.036*[#  20]+0.036*[#  21]+0.017*[#  14]+0.008*[#  28]+
          +0.008*[#  29]+0.008*[#  30]+0.008*[#  32]+0.008*[#  33]+0.008*[#  34]+
          +0.007*[#   1]+0.005*[#  27]+0.005*[#  31]+0.001*[#  23]+0.001*[#  24]+
          +0.001*[#  26]+
    |psi|^2 = 0.907
==== e(  33) =    29.25018 eV ==== 
     psi = 0.138*[#   6]+0.138*[#   7]+0.138*[#   8]+0.137*[#  19]+0.137*[#  20]+
          +0.137*[#  21]+0.013*[#  27]+0.013*[#  31]+0.003*[#  28]+0.003*[#  29]+
          +0.003*[#  30]+0.003*[#  32]+0.003*[#  33]+0.003*[#  34]+0.002*[#   3]+
          +0.002*[#   4]+0.002*[#   5]+0.002*[#  16]+0.002*[#  17]+0.002*[#  18]+
    |psi|^2 = 0.881
==== e(  34) =    30.10542 eV ==== 
     psi = 0.139*[#  19]+0.139*[#  20]+0.139*[#  21]+0.127*[#   6]+0.127*[#   7]+
          +0.127*[#   8]+0.005*[#  27]+0.005*[#  31]+0.005*[#  28]+0.005*[#  29]+
          +0.005*[#  30]+0.005*[#  32]+0.005*[#  33]+0.005*[#  34]+0.002*[#  15]+
          +0.002*[#   2]+0.002*[#   3]+0.002*[#   4]+0.002*[#   5]+0.002*[#  16]+
          +0.002*[#  17]+0.002*[#  18]+
    |psi|^2 = 0.853
==== e(  35) =    32.50461 eV ==== 
     psi = 0.028*[#  19]+0.028*[#  20]+0.028*[#  21]+0.020*[#   6]+0.020*[#   7]+
          +0.020*[#   8]+0.003*[#  28]+0.003*[#  29]+0.003*[#  30]+0.003*[#  32]+
          +0.003*[#  33]+0.003*[#  34]+
    |psi|^2 = 0.163

 k =  -0.5833333333  0.4166666667  0.0833333333
==== e(   1) =   -76.42676 eV ==== 
[...]
          +0.055*[#  30]+0.055*[#  32]+0.055*[#  33]+0.055*[#  34]+0.051*[#  15]+
          +0.011*[#  27]+0.011*[#  31]+0.010*[#  10]+0.010*[#  11]+0.010*[#  13]+
          +0.009*[#   9]+0.009*[#  12]+0.008*[#   6]+0.008*[#   7]+0.008*[#   8]+
          +0.008*[#  19]+0.008*[#  20]+0.008*[#  21]+0.004*[#  22]+0.004*[#  25]+
          +0.003*[#  14]+
    |psi|^2 = 0.998
==== e(  17) =     9.37057 eV ==== 
     psi = 0.079*[#  28]+0.079*[#  29]+0.079*[#  30]+0.079*[#  32]+0.079*[#  33]+
          +0.079*[#  34]+0.066*[#  22]+0.066*[#  25]+0.065*[#   2]+0.060*[#  23]+
          +0.060*[#  24]+0.060*[#  26]+0.027*[#  27]+0.027*[#  31]+0.016*[#  19]+
          +0.016*[#  20]+0.016*[#  21]+0.009*[#  10]+0.009*[#  11]+0.009*[#  13]+
          +0.004*[#   1]+0.003*[#   6]+0.003*[#   7]+0.003*[#   8]+
    |psi|^2 = 0.996
==== e(  18) =     9.63084 eV ==== 
     psi = 0.132*[#  28]+0.132*[#  29]+0.132*[#  30]+0.132*[#  32]+0.132*[#  33]+
          +0.132*[#  34]+0.034*[#   9]+0.034*[#  12]+0.023*[#  10]+0.023*[#  11]+
          +0.023*[#  13]+0.009*[#   2]+0.008*[#  19]+0.008*[#  20]+0.008*[#  21]+
          +0.007*[#   6]+0.007*[#   7]+0.007*[#   8]+0.003*[#  22]+0.003*[#  25]+
          +0.001*[#  27]+0.001*[#  31]+
    |psi|^2 = 0.997
==== e(  19) =    10.36167 eV ==== 
     psi = 0.116*[#  28]+0.116*[#  29]+0.116*[#  30]+0.116*[#  32]+0.116*[#  33]+
          +0.116*[#  34]+0.054*[#  23]+0.054*[#  24]+0.054*[#  26]+0.021*[#   9]+
          +0.021*[#  12]+0.014*[#  22]+0.014*[#  25]+0.009*[#  19]+0.009*[#  20]+
          +0.009*[#  21]+0.008*[#  10]+0.008*[#  11]+0.008*[#  13]+0.004*[#  15]+
          +0.003*[#   6]+0.003*[#   7]+0.003*[#   8]+
    |psi|^2 = 0.997
==== e(  20) =    10.69956 eV ==== 
     psi = 0.102*[#  28]+0.102*[#  29]+0.102*[#  30]+0.102*[#  32]+0.102*[#  33]+
          +0.102*[#  34]+0.095*[#  22]+0.095*[#  25]+0.030*[#   9]+0.030*[#  12]+
          +0.015*[#  27]+0.015*[#  31]+0.014*[#   6]+0.014*[#   7]+0.014*[#   8]+
          +0.010*[#  23]+0.010*[#  24]+0.010*[#  26]+0.008*[#  10]+0.008*[#  11]+
          +0.008*[#  13]+0.001*[#   1]+
    |psi|^2 = 0.994
==== e(  21) =    11.58205 eV ==== 
     psi = 0.118*[#  28]+0.118*[#  29]+0.118*[#  30]+0.118*[#  32]+0.118*[#  33]+
          +0.118*[#  34]+0.094*[#  22]+0.094*[#  25]+0.011*[#   9]+0.011*[#  12]+
          +0.008*[#   6]+0.008*[#   7]+0.008*[#   8]+0.008*[#  23]+0.008*[#  24]+
          +0.008*[#  26]+0.007*[#  10]+0.007*[#  11]+0.007*[#  13]+0.003*[#  15]+
    |psi|^2 = 0.994
==== e(  22) =    13.76574 eV ==== 
     psi = 0.303*[#  10]+0.303*[#  11]+0.303*[#  13]+0.010*[#  28]+0.010*[#  29]+
          +0.010*[#  30]+0.010*[#  32]+0.010*[#  33]+0.010*[#  34]+0.004*[#   9]+
          +0.004*[#  12]+0.003*[#  23]+0.003*[#  24]+0.003*[#  26]+0.002*[#   2]+
    |psi|^2 = 0.993
==== e(  23) =    13.88438 eV ==== 
     psi = 0.291*[#  10]+0.291*[#  11]+0.291*[#  13]+0.016*[#  28]+0.016*[#  29]+
          +0.016*[#  30]+0.016*[#  32]+0.016*[#  33]+0.016*[#  34]+0.003*[#   9]+
          +0.003*[#  12]+0.003*[#  15]+0.003*[#  23]+0.003*[#  24]+0.003*[#  26]+
          +0.001*[#  22]+0.001*[#  25]+
    |psi|^2 = 0.993
==== e(  24) =    14.37944 eV ==== 
     psi = 0.305*[#  10]+0.305*[#  11]+0.305*[#  13]+0.013*[#  28]+0.013*[#  29]+
          +0.013*[#  30]+0.013*[#  32]+0.013*[#  33]+0.013*[#  34]+0.002*[#   9]+
          +0.002*[#  12]+
    |psi|^2 = 0.999
==== e(  25) =    15.98920 eV ==== 
     psi = 0.394*[#   9]+0.394*[#  12]+0.037*[#  27]+0.037*[#  31]+0.035*[#  15]+
          +0.011*[#  19]+0.011*[#  20]+0.011*[#  21]+0.006*[#  28]+0.006*[#  29]+
          +0.006*[#  30]+0.006*[#  32]+0.006*[#  33]+0.006*[#  34]+0.004*[#   6]+
          +0.004*[#   7]+0.004*[#   8]+0.004*[#  10]+0.004*[#  11]+0.004*[#  13]+
          +0.001*[#  14]+
    |psi|^2 = 0.995
==== e(  26) =    16.35553 eV ==== 
     psi = 0.420*[#   9]+0.420*[#  12]+0.019*[#  28]+0.019*[#  29]+0.019*[#  30]+
          +0.019*[#  32]+0.019*[#  33]+0.019*[#  34]+0.006*[#  27]+0.006*[#  31]+
          +0.005*[#  10]+0.005*[#  11]+0.005*[#  13]+0.004*[#  19]+0.004*[#  20]+
          +0.004*[#  21]+
    |psi|^2 = 0.996
==== e(  27) =    19.75330 eV ==== 
     psi = 0.217*[#  15]+0.056*[#  27]+0.056*[#  31]+0.051*[#  28]+0.051*[#  29]+
          +0.051*[#  30]+0.051*[#  32]+0.051*[#  33]+0.051*[#  34]+0.049*[#  19]+
          +0.049*[#  20]+0.049*[#  21]+0.043*[#   9]+0.043*[#  12]+0.038*[#   6]+
          +0.038*[#   7]+0.038*[#   8]+0.003*[#  14]+
    |psi|^2 = 0.986
==== e(  28) =    19.92236 eV ==== 
     psi = 0.210*[#   2]+0.073*[#  27]+0.073*[#  31]+0.059*[#   6]+0.059*[#   7]+
          +0.059*[#   8]+0.048*[#  19]+0.048*[#  20]+0.048*[#  21]+0.046*[#  28]+
          +0.046*[#  29]+0.046*[#  30]+0.046*[#  32]+0.046*[#  33]+0.046*[#  34]+
          +0.006*[#   1]+0.005*[#  22]+0.005*[#  25]+0.004*[#   9]+0.004*[#  12]+
    |psi|^2 = 0.981
==== e(  29) =    24.64266 eV ==== 
     psi = 0.172*[#  15]+0.084*[#  19]+0.084*[#  20]+0.084*[#  21]+0.048*[#   6]+
          +0.048*[#   7]+0.048*[#   8]+0.011*[#  14]+0.007*[#  28]+0.007*[#  29]+
          +0.007*[#  30]+0.007*[#  32]+0.007*[#  33]+0.007*[#  34]+0.004*[#  10]+
          +0.004*[#  11]+0.004*[#  13]+0.002*[#  27]+0.002*[#  31]+
    |psi|^2 = 0.642
==== e(  30) =    24.72510 eV ==== 
     psi = 0.104*[#   2]+0.076*[#  19]+0.076*[#  20]+0.076*[#  21]+0.063*[#   6]+
          +0.063*[#   7]+0.063*[#   8]+0.007*[#  28]+0.007*[#  29]+0.007*[#  30]+
          +0.007*[#  32]+0.007*[#  33]+0.007*[#  34]+0.005*[#   1]+0.005*[#  10]+
          +0.005*[#  11]+0.005*[#  13]+0.001*[#  16]+0.001*[#  17]+0.001*[#  18]+
    |psi|^2 = 0.591
==== e(  31) =    26.26575 eV ==== 
     psi = 0.356*[#  15]+0.118*[#   6]+0.118*[#   7]+0.118*[#   8]+0.028*[#  14]+
          +0.010*[#  19]+0.010*[#  20]+0.010*[#  21]+0.004*[#  27]+0.004*[#  31]+
          +0.003*[#  28]+0.003*[#  29]+0.003*[#  30]+0.003*[#  32]+0.003*[#  33]+
          +0.003*[#  34]+0.001*[#  10]+0.001*[#  11]+0.001*[#  13]+
    |psi|^2 = 0.802
==== e(  32) =    26.50812 eV ==== 
     psi = 0.458*[#   2]+0.097*[#  19]+0.097*[#  20]+0.097*[#  21]+0.030*[#   1]+
          +0.013*[#   6]+0.013*[#   7]+0.013*[#   8]+0.003*[#  28]+0.003*[#  29]+
          +0.003*[#  30]+0.003*[#  32]+0.003*[#  33]+0.003*[#  34]+0.003*[#  27]+
          +0.003*[#  31]+
    |psi|^2 = 0.849
==== e(  33) =    30.24124 eV ==== 
     psi = 0.181*[#  19]+0.181*[#  20]+0.181*[#  21]+0.058*[#   6]+0.058*[#   7]+
          +0.058*[#   8]+0.005*[#  28]+0.005*[#  29]+0.005*[#  30]+0.005*[#  32]+
          +0.005*[#  33]+0.005*[#  34]+0.002*[#  16]+0.002*[#  17]+0.002*[#  18]+
    |psi|^2 = 0.761
==== e(  34) =    30.43457 eV ==== 
     psi = 0.174*[#   6]+0.174*[#   7]+0.174*[#   8]+0.052*[#  19]+0.052*[#  20]+
          +0.052*[#  21]+0.005*[#  28]+0.005*[#  29]+0.005*[#  30]+0.005*[#  32]+
          +0.005*[#  33]+0.005*[#  34]+0.002*[#   3]+0.002*[#   4]+0.002*[#   5]+
          +0.001*[#  27]+0.001*[#  31]+
    |psi|^2 = 0.720
==== e(  35) =    31.89804 eV ==== 
     psi = 0.079*[#   6]+0.079*[#   7]+0.079*[#   8]+0.008*[#  19]+0.008*[#  20]+
          +0.008*[#  21]+0.003*[#  28]+0.003*[#  29]+0.003*[#  30]+0.003*[#  32]+
          +0.003*[#  33]+0.003*[#  34]+
    |psi|^2 = 0.282

 k =  -0.2500000000 -0.2500000000 -0.2500000000
==== e(   1) =   -76.42525 eV ==== 
     psi = 0.907*[#  14]+0.028*[#   6]+0.028*[#   7]+0.028*[#   8]+0.003*[#  15]+
    |psi|^2 = 1.000
==== e(   2) =   -72.29980 eV ==== 
     psi = 0.907*[#   1]+0.029*[#  19]+0.029*[#  20]+0.029*[#  21]+0.003*[#   2]+
    |psi|^2 = 1.000
==== e(   3) =   -42.18762 eV ==== 
     psi = 0.328*[#  16]+0.328*[#  17]+0.328*[#  18]+0.005*[#  19]+0.005*[#  20]+
          +0.005*[#  21]+
    |psi|^2 = 0.999
==== e(   4) =   -42.18762 eV ==== 
     psi = 0.328*[#  16]+0.328*[#  17]+0.328*[#  18]+0.005*[#  19]+0.005*[#  20]+
          +0.005*[#  21]+
    |psi|^2 = 0.999
==== e(   5) =   -41.80460 eV ==== 
     psi = 0.330*[#  16]+0.330*[#  17]+0.330*[#  18]+0.003*[#   2]+0.001*[#  19]+
          +0.001*[#  20]+0.001*[#  21]+
    |psi|^2 = 0.998
==== e(   6) =   -38.11979 eV ==== 
     psi = 0.328*[#   3]+0.328*[#   4]+0.328*[#   5]+0.004*[#   6]+0.004*[#   7]+
          +0.004*[#   8]+
    |psi|^2 = 0.999
==== e(   7) =   -38.11979 eV ==== 
     psi = 0.328*[#   3]+0.328*[#   4]+0.328*[#   5]+0.004*[#   6]+0.004*[#   7]+
          +0.004*[#   8]+
    |psi|^2 = 0.999
==== e(   8) =   -37.98668 eV ==== 
     psi = 0.329*[#   3]+0.329*[#   4]+0.329*[#   5]+0.003*[#  15]+0.002*[#   6]+
          +0.002*[#   7]+0.002*[#   8]+
    |psi|^2 = 0.998
==== e(   9) =    -5.59286 eV ==== 
     psi = 0.316*[#  27]+0.316*[#  31]+0.087*[#   6]+0.087*[#   7]+0.087*[#   8]+
          +0.087*[#  15]+0.013*[#  14]+0.002*[#   3]+0.002*[#   4]+0.002*[#   5]+
    |psi|^2 = 1.000
==== e(  10) =    -5.55358 eV ==== 
     psi = 0.320*[#  27]+0.320*[#  31]+0.087*[#  19]+0.087*[#  20]+0.087*[#  21]+
          +0.081*[#   2]+0.014*[#   1]+0.001*[#  16]+0.001*[#  17]+0.001*[#  18]+
    |psi|^2 = 1.000
==== e(  11) =     5.86287 eV ==== 
     psi = 0.222*[#  23]+0.222*[#  24]+0.222*[#  26]+0.063*[#  15]+0.040*[#  28]+
          +0.040*[#  29]+0.040*[#  30]+0.040*[#  32]+0.040*[#  33]+0.040*[#  34]+
          +0.013*[#  27]+0.013*[#  31]+0.002*[#  14]+
    |psi|^2 = 0.999
==== e(  12) =     5.98654 eV ==== 
     psi = 0.316*[#  22]+0.316*[#  25]+0.066*[#  23]+0.066*[#  24]+0.066*[#  26]+
          +0.028*[#  28]+0.028*[#  29]+0.028*[#  30]+0.028*[#  32]+0.028*[#  33]+
          +0.028*[#  34]+
    |psi|^2 = 1.000
==== e(  13) =     5.98654 eV ==== 
     psi = 0.316*[#  22]+0.316*[#  25]+0.066*[#  23]+0.066*[#  24]+0.066*[#  26]+
          +0.028*[#  28]+0.028*[#  29]+0.028*[#  30]+0.028*[#  32]+0.028*[#  33]+
          +0.028*[#  34]+
    |psi|^2 = 1.000
==== e(  14) =     7.54367 eV ==== 
     psi = 0.262*[#  23]+0.262*[#  24]+0.262*[#  26]+0.100*[#  22]+0.100*[#  25]+
          +0.002*[#  28]+0.002*[#  29]+0.002*[#  30]+0.002*[#  32]+0.002*[#  33]+
          +0.002*[#  34]+
    |psi|^2 = 1.000
==== e(  15) =     7.54367 eV ==== 
     psi = 0.262*[#  23]+0.262*[#  24]+0.262*[#  26]+0.100*[#  22]+0.100*[#  25]+
          +0.002*[#  28]+0.002*[#  29]+0.002*[#  30]+0.002*[#  32]+0.002*[#  33]+
          +0.002*[#  34]+
    |psi|^2 = 1.000
==== e(  16) =     7.99333 eV ==== 
     psi = 0.148*[#   2]+0.112*[#  28]+0.112*[#  29]+0.112*[#  30]+0.112*[#  32]+
          +0.112*[#  33]+0.112*[#  34]+0.032*[#  10]+0.032*[#  11]+0.032*[#  13]+
          +0.030*[#  27]+0.030*[#  31]+0.005*[#   1]+0.005*[#  19]+0.005*[#  20]+
          +0.005*[#  21]+
    |psi|^2 = 0.997
==== e(  17) =     9.61943 eV ==== 
     psi = 0.110*[#  23]+0.110*[#  24]+0.110*[#  26]+0.104*[#  15]+0.080*[#  28]+
          +0.080*[#  29]+0.080*[#  30]+0.080*[#  32]+0.080*[#  33]+0.080*[#  34]+
          +0.029*[#  27]+0.029*[#  31]+0.008*[#   6]+0.008*[#   7]+0.008*[#   8]+
          +0.004*[#  14]+
    |psi|^2 = 0.997
==== e(  18) =    10.05712 eV ==== 
     psi = 0.138*[#  28]+0.138*[#  29]+0.138*[#  30]+0.138*[#  32]+0.138*[#  33]+
          +0.138*[#  34]+0.068*[#   9]+0.068*[#  12]+0.008*[#  10]+0.008*[#  11]+
          +0.008*[#  13]+0.002*[#  19]+0.002*[#  20]+0.002*[#  21]+
    |psi|^2 = 0.995
==== e(  19) =    10.05712 eV ==== 
     psi = 0.138*[#  28]+0.138*[#  29]+0.138*[#  30]+0.138*[#  32]+0.138*[#  33]+
          +0.138*[#  34]+0.068*[#   9]+0.068*[#  12]+0.008*[#  10]+0.008*[#  11]+
          +0.008*[#  13]+0.002*[#  19]+0.002*[#  20]+0.002*[#  21]+
    |psi|^2 = 0.995
==== e(  20) =    12.07681 eV ==== 
     psi = 0.134*[#  28]+0.134*[#  29]+0.134*[#  30]+0.134*[#  32]+0.134*[#  33]+
          +0.134*[#  34]+0.083*[#  22]+0.083*[#  25]+0.004*[#  23]+0.004*[#  24]+
          +0.004*[#  26]+0.003*[#   6]+0.003*[#   7]+0.003*[#   8]+
    |psi|^2 = 0.993
==== e(  21) =    12.07681 eV ==== 
     psi = 0.134*[#  28]+0.134*[#  29]+0.134*[#  30]+0.134*[#  32]+0.134*[#  33]+
          +0.134*[#  34]+0.083*[#  22]+0.083*[#  25]+0.004*[#  23]+0.004*[#  24]+
          +0.004*[#  26]+0.003*[#   6]+0.003*[#   7]+0.003*[#   8]+
    |psi|^2 = 0.993
==== e(  22) =    13.64212 eV ==== 
     psi = 0.292*[#  10]+0.292*[#  11]+0.292*[#  13]+0.010*[#  28]+0.010*[#  29]+
          +0.010*[#  30]+0.010*[#  32]+0.010*[#  33]+0.010*[#  34]+0.010*[#  27]+
          +0.010*[#  31]+0.008*[#  19]+0.008*[#  20]+0.008*[#  21]+0.007*[#   2]+
          +0.002*[#   1]+
    |psi|^2 = 0.991
==== e(  23) =    13.70781 eV ==== 
     psi = 0.311*[#  10]+0.311*[#  11]+0.311*[#  13]+0.026*[#   9]+0.026*[#  12]+
          +0.002*[#  19]+0.002*[#  20]+0.002*[#  21]+0.001*[#  28]+0.001*[#  29]+
          +0.001*[#  30]+0.001*[#  32]+0.001*[#  33]+0.001*[#  34]+
    |psi|^2 = 0.996
==== e(  24) =    13.70781 eV ==== 
     psi = 0.311*[#  10]+0.311*[#  11]+0.311*[#  13]+0.026*[#   9]+0.026*[#  12]+
          +0.002*[#  19]+0.002*[#  20]+0.002*[#  21]+0.001*[#  28]+0.001*[#  29]+
          +0.001*[#  30]+0.001*[#  32]+0.001*[#  33]+0.001*[#  34]+
    |psi|^2 = 0.996
==== e(  25) =    16.32986 eV ==== 
     psi = 0.404*[#   9]+0.404*[#  12]+0.025*[#  28]+0.025*[#  29]+0.025*[#  30]+
          +0.025*[#  32]+0.025*[#  33]+0.025*[#  34]+0.011*[#  10]+0.011*[#  11]+
          +0.011*[#  13]+0.001*[#  19]+0.001*[#  20]+0.001*[#  21]+
    |psi|^2 = 0.997
==== e(  26) =    16.32986 eV ==== 
     psi = 0.404*[#   9]+0.404*[#  12]+0.025*[#  28]+0.025*[#  29]+0.025*[#  30]+
          +0.025*[#  32]+0.025*[#  33]+0.025*[#  34]+0.011*[#  10]+0.011*[#  11]+
          +0.011*[#  13]+0.001*[#  19]+0.001*[#  20]+0.001*[#  21]+
    |psi|^2 = 0.997
==== e(  27) =    17.38007 eV ==== 
     psi = 0.170*[#  15]+0.131*[#  27]+0.131*[#  31]+0.100*[#   6]+0.100*[#   7]+
          +0.100*[#   8]+0.039*[#  28]+0.039*[#  29]+0.039*[#  30]+0.039*[#  32]+
          +0.039*[#  33]+0.039*[#  34]+0.017*[#  14]+0.002*[#   3]+0.002*[#   4]+
          +0.002*[#   5]+
    |psi|^2 = 0.988
==== e(  28) =    17.72785 eV ==== 
     psi = 0.155*[#   2]+0.132*[#  27]+0.132*[#  31]+0.106*[#  19]+0.106*[#  20]+
          +0.106*[#  21]+0.036*[#  28]+0.036*[#  29]+0.036*[#  30]+0.036*[#  32]+
          +0.036*[#  33]+0.036*[#  34]+0.020*[#   1]+0.003*[#  10]+0.003*[#  11]+
          +0.003*[#  13]+0.002*[#  16]+0.002*[#  17]+0.002*[#  18]+
    |psi|^2 = 0.989
==== e(  29) =    25.08349 eV ==== 
     psi = 0.342*[#  15]+0.053*[#   6]+0.053*[#   7]+0.053*[#   8]+0.029*[#  14]+
          +0.005*[#  28]+0.005*[#  29]+0.005*[#  30]+0.005*[#  32]+0.005*[#  33]+
          +0.005*[#  34]+0.002*[#  27]+0.002*[#  31]+
    |psi|^2 = 0.566
==== e(  30) =    25.54867 eV ==== 
     psi = 0.365*[#   2]+0.049*[#  19]+0.049*[#  20]+0.049*[#  21]+0.028*[#   1]+
          +0.006*[#  10]+0.006*[#  11]+0.006*[#  13]+0.004*[#  28]+0.004*[#  29]+
          +0.004*[#  30]+0.004*[#  32]+0.004*[#  33]+0.004*[#  34]+0.001*[#  27]+
          +0.001*[#  31]+
    |psi|^2 = 0.586
==== e(  31) =    30.38027 eV ==== 
     psi = 0.146*[#   6]+0.146*[#   7]+0.146*[#   8]+0.003*[#   3]+0.003*[#   4]+
          +0.003*[#   5]+
    |psi|^2 = 0.451
==== e(  32) =    30.38027 eV ==== 
     psi = 0.146*[#   6]+0.146*[#   7]+0.146*[#   8]+0.003*[#   3]+0.003*[#   4]+
          +0.003*[#   5]+
    |psi|^2 = 0.451
==== e(  33) =    30.52652 eV ==== 
     psi = 0.165*[#  19]+0.165*[#  20]+0.165*[#  21]+0.003*[#  16]+0.003*[#  17]+
          +0.003*[#  18]+0.003*[#  10]+0.003*[#  11]+0.003*[#  13]+0.001*[#   9]+
          +0.001*[#  12]+
    |psi|^2 = 0.519
==== e(  34) =    30.52652 eV ==== 
     psi = 0.165*[#  19]+0.165*[#  20]+0.165*[#  21]+0.003*[#  16]+0.003*[#  17]+
          +0.003*[#  18]+0.003*[#  10]+0.003*[#  11]+0.003*[#  13]+0.001*[#   9]+
          +0.001*[#  12]+
    |psi|^2 = 0.519
==== e(  35) =    34.01567 eV ==== 
     psi = 0.146*[#  15]+0.030*[#   6]+0.030*[#   7]+0.030*[#   8]+0.015*[#  14]+
          +0.002*[#  27]+0.002*[#  31]+0.001*[#  28]+0.001*[#  29]+0.001*[#  30]+
          +0.001*[#  32]+0.001*[#  33]+0.001*[#  34]+
    |psi|^2 = 0.265

Lowdin Charges: 

           1           2   1.13920415696707        3.40036643100574     
   4.97074351276762     
           2           2   1.13272240995118        3.39976201477429     
   1.37900166756881     
     Atom #   1: total charge =  15.4218, s =  2.2719, p =  6.8001, d =  6.3497, 
                 spin up      =   9.5103, s =  1.1392, 
                 spin up      =   9.5103, p =  3.4004, pz=  1.1335, px=  1.1335, py=  1.1335, 
                 spin up      =   9.5103, d =  4.9707, dz2=  0.9911, dxz=  0.9962, dyz=  0.9962, dx2-y2=  0.9911, dxy=  0.9962, 
                 spin down    =   5.9115, s =  1.1327, 
                 spin down    =   5.9115, p =  3.3998, pz=  1.1333, px=  1.1333, py=  1.1333, 
                 spin down    =   5.9115, d =  1.3790, dz2=  0.1436, dxz=  0.3639, dyz=  0.3639, dx2-y2=  0.1436, dxy=  0.3639, 
                 polarization =   3.5988, s =  0.0065, p =  0.0006, d =  3.5917, 
           1           2   1.13272262749368        3.39976220863411     
   1.37903358324555     
           2           2   1.13920427726501        3.40036642326985     
   4.97074403496340     
     Atom #   2: total charge =  15.4218, s =  2.2719, p =  6.8001, d =  6.3498, 
                 spin up      =   5.9115, s =  1.1327, 
                 spin up      =   5.9115, p =  3.3998, pz=  1.1333, px=  1.1333, py=  1.1333, 
                 spin up      =   5.9115, d =  1.3790, dz2=  0.1436, dxz=  0.3639, dyz=  0.3639, dx2-y2=  0.1436, dxy=  0.3639, 
                 spin down    =   9.5103, s =  1.1392, 
                 spin down    =   9.5103, p =  3.4004, pz=  1.1335, px=  1.1335, py=  1.1335, 
                 spin down    =   9.5103, d =  4.9707, dz2=  0.9911, dxz=  0.9962, dyz=  0.9962, dx2-y2=  0.9911, dxy=  0.9962, 
                 polarization =  -3.5988, s = -0.0065, p = -0.0006, d = -3.5917, 
           1           2  0.827594029129893        2.43891491303274     
  0.000000000000000E+000
           2           2  0.827593865050195        2.43891718973470     
  0.000000000000000E+000
     Atom #   3: total charge =   6.5330, s =  1.6552, p =  4.8778, d =  0.0000, 
                 spin up      =   3.2665, s =  0.8276, 
                 spin up      =   3.2665, p =  2.4389, pz=  0.8130, px=  0.8130, py=  0.8130, 
                 spin up      =   3.2665, d =  0.0000, dz2=  0.0000, dxz=  0.0000, dyz=  0.0000, dx2-y2=  0.0000, dxy=  0.0000, 
                 spin down    =   3.2665, s =  0.8276, 
                 spin down    =   3.2665, p =  2.4389, pz=  0.8130, px=  0.8130, py=  0.8130, 
                 spin down    =   3.2665, d =  0.0000, dz2=  0.0000, dxz=  0.0000, dyz=  0.0000, dx2-y2=  0.0000, dxy=  0.0000, 
                 polarization =  -0.0000, s =  0.0000, p = -0.0000, d =  0.0000, 
           1           2  0.827594029129893        2.43891491303274     
  0.000000000000000E+000
           2           2  0.827593865050195        2.43891718973470     
  0.000000000000000E+000
     Atom #   4: total charge =   6.5330, s =  1.6552, p =  4.8778, d =  0.0000, 
                 spin up      =   3.2665, s =  0.8276, 
                 spin up      =   3.2665, p =  2.4389, pz=  0.8130, px=  0.8130, py=  0.8130, 
                 spin up      =   3.2665, d =  0.0000, dz2=  0.0000, dxz=  0.0000, dyz=  0.0000, dx2-y2=  0.0000, dxy=  0.0000, 
                 spin down    =   3.2665, s =  0.8276, 
                 spin down    =   3.2665, p =  2.4389, pz=  0.8130, px=  0.8130, py=  0.8130, 
                 spin down    =   3.2665, d =  0.0000, dz2=  0.0000, dxz=  0.0000, dyz=  0.0000, dx2-y2=  0.0000, dxy=  0.0000, 
                 polarization =  -0.0000, s =  0.0000, p = -0.0000, d =  0.0000, 
     Spilling Parameter:   0.0021
 
     PROJWFC      :      3.44s CPU      3.72s WALL

 
   This run was terminated on:  16:21:53   3Sep2019            

=------------------------------------------------------------------------------=
   JOB DONE.
=------------------------------------------------------------------------------=
