
     Program PWSCF v.6.4.1 starts on  3Sep2019 at 16:17:28 

     This program is part of the open-source Quantum ESPRESSO suite
     for quantum simulation of materials; please cite
         "P. Giannozzi et al., J. Phys.:Condens. Matter 21 395502 (2009);
         "P. Giannozzi et al., J. Phys.:Condens. Matter 29 465901 (2017);
          URL http://www.quantum-espresso.org", 
     in publications or presentations arising from this work. More details at
     http://www.quantum-espresso.org/quote

     Parallel version (MPI), running on     2 processors

     MPI processes distributed on     1 nodes
     R & G space division:  proc/nbgrp/npool/nimage =       2
     Waiting for input...
     Reading input from standard input

     Current dimensions of program PWSCF are:
     Max number of different atomic species (ntypx) = 10
     Max number of k-points (npk) =  40000
     Max angular momentum in pseudopotentials (lmaxx) =  3
     Message from routine volume:
     axis vectors are left-handed
     Message from routine read_upf::
     Pseudo file Fe.pbesol-spn-kjpaw_psl.0.2.1.UPF has been fixed on the fly.
To avoid this message in the future, permanently fix 
 your pseudo files following these instructions: 
https://gitlab.com/QEF/q-e/blob/master/upftools/how_to_fix_upf.md
     Message from routine read_upf::
     Pseudo file Fe.pbesol-spn-kjpaw_psl.0.2.1.UPF has been fixed on the fly.
To avoid this message in the future, permanently fix 
 your pseudo files following these instructions: 
https://gitlab.com/QEF/q-e/blob/master/upftools/how_to_fix_upf.md
     Message from routine read_upf::
     Pseudo file O.pbesol-n-kjpaw_psl.0.1.UPF has been fixed on the fly.
To avoid this message in the future, permanently fix 
 your pseudo files following these instructions: 
https://gitlab.com/QEF/q-e/blob/master/upftools/how_to_fix_upf.md
               file Fe.pbesol-spn-kjpaw_psl.0.2.1.UPF: wavefunction(s)  3D renormalized
               file Fe.pbesol-spn-kjpaw_psl.0.2.1.UPF: wavefunction(s)  3D renormalized
               file O.pbesol-n-kjpaw_psl.0.1.UPF: wavefunction(s)  2P renormalized

     Subspace diagonalization in iterative solution of the eigenvalue problem:
     a serial algorithm will be used

     Message from routine setup:
     DEPRECATED: symmetry with ibrav=0, use correct ibrav instead
 
     Parallelization info
     --------------------
     sticks:   dense  smooth     PW     G-vecs:    dense   smooth      PW
     Min         530     269     85                 8627     3055     570
     Max         531     270     86                 8628     3056     571
     Sum        1061     539    171                17255     6111    1141
 


     bravais-lattice index     =            0
     lattice parameter (alat)  =       8.1900  a.u.
     unit-cell volume          =     274.6766 (a.u.)^3
     number of atoms/cell      =            4
     number of atomic types    =            3
     number of electrons       =        44.00
     number of Kohn-Sham states=           26
     kinetic-energy cutoff     =      30.0000  Ry
     charge density cutoff     =     240.0000  Ry
     convergence threshold     =      1.0E-09
     mixing beta               =       0.3000
     number of iterations used =            8  plain     mixing
     Exchange-correlation      = SLA PW PSX PSC ( 1  4 10  8 0 0)

     celldm(1)=   8.190000  celldm(2)=   0.000000  celldm(3)=   0.000000
     celldm(4)=   0.000000  celldm(5)=   0.000000  celldm(6)=   0.000000

     crystal axes: (cart. coord. in units of alat)
               a(1) = (   0.500000   0.500000   1.000000 )  
               a(2) = (   0.500000   1.000000   0.500000 )  
               a(3) = (   1.000000   0.500000   0.500000 )  

     reciprocal axes: (cart. coord. in units 2 pi/alat)
               b(1) = ( -0.500000 -0.500000  1.500000 )  
               b(2) = ( -0.500000  1.500000 -0.500000 )  
               b(3) = (  1.500000 -0.500000 -0.500000 )  


     PseudoPot. # 1 for Fe read from file:
     ../../../pseudo/Fe.pbesol-spn-kjpaw_psl.0.2.1.UPF
     MD5 check sum: 7febcda02fc281f884e3aa15a414695d
     Pseudo is Projector augmented-wave + core cor, Zval = 16.0
     Generated using "atomic" code by A. Dal Corso v.6.0 svn rev. 13079
     Shape of augmentation charge: PSQ
     Using radial grid of 1191 points,  6 beta functions with: 
                l(1) =   0
                l(2) =   0
                l(3) =   1
                l(4) =   1
                l(5) =   2
                l(6) =   2
     Q(r) pseudized with 0 coefficients 


     PseudoPot. # 2 for Fe read from file:
     ../../../pseudo/Fe.pbesol-spn-kjpaw_psl.0.2.1.UPF
     MD5 check sum: 7febcda02fc281f884e3aa15a414695d
     Pseudo is Projector augmented-wave + core cor, Zval = 16.0
     Generated using "atomic" code by A. Dal Corso v.6.0 svn rev. 13079
     Shape of augmentation charge: PSQ
     Using radial grid of 1191 points,  6 beta functions with: 
                l(1) =   0
                l(2) =   0
                l(3) =   1
                l(4) =   1
                l(5) =   2
                l(6) =   2
     Q(r) pseudized with 0 coefficients 


     PseudoPot. # 3 for O  read from file:
     ../../../pseudo/O.pbesol-n-kjpaw_psl.0.1.UPF
     MD5 check sum: 126339daddaa87477ab44acfa0b5aa00
     Pseudo is Projector augmented-wave + core cor, Zval =  6.0
     Generated using "atomic" code by A. Dal Corso v.6.0 svn rev. 13079
     Shape of augmentation charge: BESSEL
     Using radial grid of 1095 points,  4 beta functions with: 
                l(1) =   0
                l(2) =   0
                l(3) =   1
                l(4) =   1
     Q(r) pseudized with 0 coefficients 


     atomic species   valence    mass     pseudopotential
        Fe1           16.00    55.84500     Fe( 1.00)
        Fe2           16.00    55.84500     Fe( 1.00)
        O              6.00    16.00000     O ( 1.00)

     Starting magnetic structure 
     atomic species   magnetization
        Fe1          0.500
        Fe2         -0.500
        O            0.000


     Simplified LDA+U calculation (l_max = 2) with parameters (eV):
     atomic species    L          U    alpha       J0     beta
        Fe1            2     5.2000   0.0000   0.0000   0.0000
        Fe2            2     5.2000   0.0000   0.0000   0.0000



     12 Sym. Ops., with inversion, found


                                    s                        frac. trans.

      isym =  1     identity                                     

 cryst.   s( 1) = (     1          0          0      )
                  (     0          1          0      )
                  (     0          0          1      )

 cart.    s( 1) = (  1.0000000  0.0000000  0.0000000 )
                  (  0.0000000  1.0000000  0.0000000 )
                  (  0.0000000  0.0000000  1.0000000 )


      isym =  2     180 deg rotation - cart. axis [1,-1,0]       

 cryst.   s( 2) = (    -1          0          0      )
                  (     0          0         -1      )
                  (     0         -1          0      )

 cart.    s( 2) = (  0.0000000 -1.0000000  0.0000000 )
                  ( -1.0000000  0.0000000  0.0000000 )
                  (  0.0000000  0.0000000 -1.0000000 )


      isym =  3     180 deg rotation - cart. axis [-1,0,1]       

 cryst.   s( 3) = (     0          0         -1      )
                  (     0         -1          0      )
                  (    -1          0          0      )

 cart.    s( 3) = (  0.0000000  0.0000000 -1.0000000 )
                  (  0.0000000 -1.0000000  0.0000000 )
                  ( -1.0000000  0.0000000  0.0000000 )


      isym =  4     180 deg rotation - cart. axis [0,1,-1]       

 cryst.   s( 4) = (     0         -1          0      )
                  (    -1          0          0      )
                  (     0          0         -1      )

 cart.    s( 4) = ( -1.0000000  0.0000000  0.0000000 )
                  (  0.0000000  0.0000000 -1.0000000 )
                  (  0.0000000 -1.0000000  0.0000000 )


      isym =  5     120 deg rotation - cart. axis [-1,-1,-1]     

 cryst.   s( 5) = (     0          1          0      )
                  (     0          0          1      )
                  (     1          0          0      )

 cart.    s( 5) = (  0.0000000  1.0000000  0.0000000 )
                  (  0.0000000  0.0000000  1.0000000 )
                  (  1.0000000  0.0000000  0.0000000 )


      isym =  6     120 deg rotation - cart. axis [1,1,1]        

 cryst.   s( 6) = (     0          0          1      )
                  (     1          0          0      )
                  (     0          1          0      )

 cart.    s( 6) = (  0.0000000  0.0000000  1.0000000 )
                  (  1.0000000  0.0000000  0.0000000 )
                  (  0.0000000  1.0000000  0.0000000 )


      isym =  7     inversion                                    

 cryst.   s( 7) = (    -1          0          0      )
                  (     0         -1          0      )
                  (     0          0         -1      )

 cart.    s( 7) = ( -1.0000000  0.0000000  0.0000000 )
                  (  0.0000000 -1.0000000  0.0000000 )
                  (  0.0000000  0.0000000 -1.0000000 )


      isym =  8     inv. 180 deg rotation - cart. axis [1,-1,0]  

 cryst.   s( 8) = (     1          0          0      )
                  (     0          0          1      )
                  (     0          1          0      )

 cart.    s( 8) = (  0.0000000  1.0000000  0.0000000 )
                  (  1.0000000  0.0000000  0.0000000 )
                  (  0.0000000  0.0000000  1.0000000 )


      isym =  9     inv. 180 deg rotation - cart. axis [-1,0,1]  

 cryst.   s( 9) = (     0          0          1      )
                  (     0          1          0      )
                  (     1          0          0      )

 cart.    s( 9) = (  0.0000000  0.0000000  1.0000000 )
                  (  0.0000000  1.0000000  0.0000000 )
                  (  1.0000000  0.0000000  0.0000000 )


      isym = 10     inv. 180 deg rotation - cart. axis [0,1,-1]  

 cryst.   s(10) = (     0          1          0      )
                  (     1          0          0      )
                  (     0          0          1      )

 cart.    s(10) = (  1.0000000  0.0000000  0.0000000 )
                  (  0.0000000  0.0000000  1.0000000 )
                  (  0.0000000  1.0000000  0.0000000 )


      isym = 11     inv. 120 deg rotation - cart. axis [-1,-1,-1]

 cryst.   s(11) = (     0         -1          0      )
                  (     0          0         -1      )
                  (    -1          0          0      )

 cart.    s(11) = (  0.0000000 -1.0000000  0.0000000 )
                  (  0.0000000  0.0000000 -1.0000000 )
                  ( -1.0000000  0.0000000  0.0000000 )


      isym = 12     inv. 120 deg rotation - cart. axis [1,1,1]   

 cryst.   s(12) = (     0          0         -1      )
                  (    -1          0          0      )
                  (     0         -1          0      )

 cart.    s(12) = (  0.0000000  0.0000000 -1.0000000 )
                  ( -1.0000000  0.0000000  0.0000000 )
                  (  0.0000000 -1.0000000  0.0000000 )


   Cartesian axes

     site n.     atom                  positions (alat units)
         1           Fe1 tau(   1) = (   0.0000000   0.0000000   0.0000000  )
         2           Fe2 tau(   2) = (   1.0000000   1.0000000   1.0000000  )
         3           O   tau(   3) = (   0.5000000   0.5000000   0.5000000  )
         4           O   tau(   4) = (   1.5000000   1.5000000   1.5000000  )

   Crystallographic axes

     site n.     atom                  positions (cryst. coord.)
         1           Fe1 tau(   1) = (  0.0000000  0.0000000  0.0000000  )
         2           Fe2 tau(   2) = (  0.5000000  0.5000000  0.5000000  )
         3           O   tau(   3) = (  0.2500000  0.2500000  0.2500000  )
         4           O   tau(   4) = (  0.7500000  0.7500000  0.7500000  )

     number of k points=     6  Marzari-Vanderbilt smearing, width (Ry)=  0.0200
                       cart. coord. in units 2pi/alat
        k(    1) = (   0.0000000   0.0000000   0.0000000), wk =   0.0370370
        k(    2) = (   0.5000000  -0.1666667  -0.1666667), wk =   0.2222222
        k(    3) = (   0.3333333   0.3333333  -0.3333333), wk =   0.2222222
        k(    4) = (  -0.6666667   0.6666667   0.0000000), wk =   0.2222222
        k(    5) = (   0.1666667   0.1666667   0.1666667), wk =   0.0740741
        k(    6) = (  -0.8333333   0.5000000   0.5000000), wk =   0.2222222

                       cryst. coord.
        k(    1) = (   0.0000000   0.0000000   0.0000000), wk =   0.0370370
        k(    2) = (   0.0000000   0.0000000   0.3333333), wk =   0.2222222
        k(    3) = (   0.0000000   0.3333333   0.3333333), wk =   0.2222222
        k(    4) = (   0.0000000   0.3333333  -0.3333333), wk =   0.2222222
        k(    5) = (   0.3333333   0.3333333   0.3333333), wk =   0.0740741
        k(    6) = (   0.3333333   0.3333333  -0.3333333), wk =   0.2222222

     Dense  grid:    17255 G-vectors     FFT dimensions: (  50,  50,  50)

     Smooth grid:     6111 G-vectors     FFT dimensions: (  36,  36,  36)

     Dynamical RAM for                 wfc:       0.15 MB

     Dynamical RAM for     wfc (w. buffer):       1.96 MB

     Dynamical RAM for             U proj.:       0.06 MB

     Dynamical RAM for  U proj. (w. buff.):       0.76 MB

     Dynamical RAM for           str. fact:       0.39 MB

     Dynamical RAM for           local pot:       0.00 MB

     Dynamical RAM for          nlocal pot:       0.30 MB

     Dynamical RAM for                qrad:       4.86 MB

     Dynamical RAM for          rho,v,vnew:       3.65 MB

     Dynamical RAM for               rhoin:       1.22 MB

     Dynamical RAM for            rho*nmix:       4.21 MB

     Dynamical RAM for           G-vectors:       0.52 MB

     Dynamical RAM for          h,s,v(r/c):       0.50 MB

     Dynamical RAM for          <psi|beta>:       0.02 MB

     Dynamical RAM for                 psi:       0.60 MB

     Dynamical RAM for                hpsi:       0.60 MB

     Dynamical RAM for                spsi:       0.60 MB

     Dynamical RAM for      wfcinit/wfcrot:       0.42 MB

     Dynamical RAM for           addusdens:      24.88 MB

     Estimated static dynamical RAM per process >      21.27 MB

     Estimated max dynamical RAM per process >      46.15 MB

     Estimated total dynamical RAM >      92.30 MB
     Generating pointlists ...
     new r_m :   0.2063 (alat units)  1.6892 (a.u.) for type    1
     new r_m :   0.2063 (alat units)  1.6892 (a.u.) for type    2
     new r_m :   0.2063 (alat units)  1.6892 (a.u.) for type    3

     Check: negative core charge=   -0.000246

     Initial potential from superposition of free atoms

     starting charge   43.99919, renormalised to   44.00000
 --- in v_hubbard ---
Hubbard energy    0.3058
 -------
     Number of +U iterations with fixed ns =  0
     Starting occupations:
 --- enter write_ns ---
 LDA+U parameters:
U( 1)     =  5.20000000
alpha( 1) =  0.00000000
U( 2)     =  5.20000000
alpha( 2) =  0.00000000
atom    1   Tr[ns(na)] (up, down, total) =   5.00000  1.00000  6.00000
   spin  1
    eigenvalues: 
  1.000  1.000  1.000  1.000  1.000
    eigenvectors:
  1.000  0.000  0.000  0.000  0.000
  0.000  1.000  0.000  0.000  0.000
  0.000  0.000  1.000  0.000  0.000
  0.000  0.000  0.000  1.000  0.000
  0.000  0.000  0.000  0.000  1.000
    occupations:
  1.000  0.000  0.000  0.000  0.000
  0.000  1.000  0.000  0.000  0.000
  0.000  0.000  1.000  0.000  0.000
  0.000  0.000  0.000  1.000  0.000
  0.000  0.000  0.000  0.000  1.000
   spin  2
    eigenvalues: 
  0.200  0.200  0.200  0.200  0.200
    eigenvectors:
  1.000  0.000  0.000  0.000  0.000
  0.000  1.000  0.000  0.000  0.000
  0.000  0.000  1.000  0.000  0.000
  0.000  0.000  0.000  1.000  0.000
  0.000  0.000  0.000  0.000  1.000
    occupations:
  0.200  0.000  0.000  0.000  0.000
  0.000  0.200  0.000  0.000  0.000
  0.000  0.000  0.200  0.000  0.000
  0.000  0.000  0.000  0.200  0.000
  0.000  0.000  0.000  0.000  0.200
atomic mag. moment =     4.000000
atom    2   Tr[ns(na)] (up, down, total) =   1.00000  5.00000  6.00000
   spin  1
    eigenvalues: 
  0.200  0.200  0.200  0.200  0.200
    eigenvectors:
  1.000  0.000  0.000  0.000  0.000
  0.000  1.000  0.000  0.000  0.000
  0.000  0.000  1.000  0.000  0.000
  0.000  0.000  0.000  1.000  0.000
  0.000  0.000  0.000  0.000  1.000
    occupations:
  0.200  0.000  0.000  0.000  0.000
  0.000  0.200  0.000  0.000  0.000
  0.000  0.000  0.200  0.000  0.000
  0.000  0.000  0.000  0.200  0.000
  0.000  0.000  0.000  0.000  0.200
   spin  2
    eigenvalues: 
  1.000  1.000  1.000  1.000  1.000
    eigenvectors:
  1.000  0.000  0.000  0.000  0.000
  0.000  1.000  0.000  0.000  0.000
  0.000  0.000  1.000  0.000  0.000
  0.000  0.000  0.000  1.000  0.000
  0.000  0.000  0.000  0.000  1.000
    occupations:
  1.000  0.000  0.000  0.000  0.000
  0.000  1.000  0.000  0.000  0.000
  0.000  0.000  1.000  0.000  0.000
  0.000  0.000  0.000  1.000  0.000
  0.000  0.000  0.000  0.000  1.000
atomic mag. moment =    -4.000000
N of occupied +U levels =   12.000000
 --- exit write_ns ---
 Atomic wfc used for LDA+U Projector are NOT orthogonalized
     Starting wfcs are   34 randomized atomic wfcs
     Checking if some PAW data can be deallocated... 
       PAW data deallocated on    1 nodes for type:  1
       PAW data deallocated on    1 nodes for type:  2
       PAW data deallocated on    1 nodes for type:  3

     total cpu time spent up to now is        2.9 secs

     Self-consistent Calculation

     iteration #  1     ecut=    30.00 Ry     beta= 0.30
     Davidson diagonalization with overlap
     ethr =  1.00E-02,  avg # of iterations =  2.0
 --- enter write_ns ---
 LDA+U parameters:
U( 1)     =  5.20000000
alpha( 1) =  0.00000000
U( 2)     =  5.20000000
alpha( 2) =  0.00000000
atom    1   Tr[ns(na)] (up, down, total) =   5.00634  1.09448  6.10082
   spin  1
    eigenvalues: 
  1.000  1.000  1.002  1.002  1.002
    eigenvectors:
  0.099  0.901  0.000  0.000  0.000
  0.000  0.000  0.183  0.483  0.333
  0.000  0.000  0.150  0.516  0.333
  0.901  0.099  0.000  0.000  0.000
  0.000  0.000  0.666  0.001  0.333
    occupations:
  1.000  0.000  0.000  0.000  0.000
  0.000  1.002  0.000  0.000 -0.000
  0.000  0.000  1.002 -0.000 -0.000
  0.000  0.000 -0.000  1.000 -0.000
  0.000 -0.000 -0.000 -0.000  1.002
   spin  2
    eigenvalues: 
  0.129  0.129  0.270  0.270  0.296
    eigenvectors:
  0.000  0.982  0.017  0.001  0.000
  0.009  0.003  0.044  0.611  0.333
  0.009  0.003  0.328  0.327  0.333
  0.982  0.000  0.001  0.017  0.000
  0.000  0.012  0.611  0.044  0.333
    occupations:
  0.132 -0.008 -0.008  0.000 -0.015
 -0.008  0.277  0.009 -0.013 -0.009
 -0.008  0.009  0.277  0.013 -0.009
  0.000 -0.013  0.013  0.132 -0.000
 -0.015 -0.009 -0.009 -0.000  0.277
atomic mag. moment =     3.911863
atom    2   Tr[ns(na)] (up, down, total) =   1.09429  5.00635  6.10063
   spin  1
    eigenvalues: 
  0.129  0.129  0.270  0.270  0.296
    eigenvectors:
  0.036  0.947  0.013  0.004  0.000
  0.007  0.005  0.000  0.655  0.333
  0.010  0.001  0.489  0.166  0.333
  0.947  0.036  0.004  0.013  0.000
  0.000  0.011  0.494  0.161  0.333
    occupations:
  0.131 -0.008 -0.008  0.000 -0.015
 -0.008  0.277  0.009 -0.013 -0.009
 -0.008  0.009  0.277  0.013 -0.009
  0.000 -0.013  0.013  0.131 -0.000
 -0.015 -0.009 -0.009 -0.000  0.277
   spin  2
    eigenvalues: 
  1.000  1.000  1.002  1.002  1.002
    eigenvectors:
  0.114  0.886  0.000  0.000  0.000
  0.000  0.000  0.155  0.512  0.333
  0.000  0.000  0.179  0.488  0.333
  0.886  0.114  0.000  0.000  0.000
  0.000  0.000  0.666  0.000  0.333
    occupations:
  1.000  0.000  0.000  0.000  0.000
  0.000  1.002  0.000  0.000 -0.000
  0.000  0.000  1.002 -0.000 -0.000
  0.000  0.000 -0.000  1.000 -0.000
  0.000 -0.000 -0.000 -0.000  1.002
atomic mag. moment =    -3.912061
N of occupied +U levels =   12.201454
 --- exit write_ns ---
 --- in v_hubbard ---
Hubbard energy    0.3138
 -------

     total cpu time spent up to now is        4.2 secs

     total energy              =    -734.42336709 Ry
     Harris-Foulkes estimate   =    -734.61658421 Ry
     estimated scf accuracy    <       1.72849072 Ry

     total magnetization       =    -0.00 Bohr mag/cell
     absolute magnetization    =     8.50 Bohr mag/cell

     iteration #  2     ecut=    30.00 Ry     beta= 0.30
     Davidson diagonalization with overlap
     ethr =  3.93E-03,  avg # of iterations =  3.0
 --- enter write_ns ---
 LDA+U parameters:
U( 1)     =  5.20000000
alpha( 1) =  0.00000000
U( 2)     =  5.20000000
alpha( 2) =  0.00000000
atom    1   Tr[ns(na)] (up, down, total) =   5.00101  1.52061  6.52162
   spin  1
    eigenvalues: 
  0.999  0.999  1.001  1.001  1.001
    eigenvectors:
  0.047  0.953  0.000  0.000  0.000
  0.000  0.000  0.333  0.143  0.524
  0.000  0.000  0.333  0.191  0.475
  0.953  0.047  0.000  0.000  0.000
  0.000  0.000  0.333  0.665  0.001
    occupations:
  0.999 -0.000 -0.000  0.000 -0.000
 -0.000  1.001 -0.000 -0.000  0.000
 -0.000 -0.000  1.001  0.000  0.000
  0.000 -0.000  0.000  0.999 -0.000
 -0.000  0.000  0.000 -0.000  1.001
   spin  2
    eigenvalues: 
  0.187  0.187  0.350  0.350  0.448
    eigenvectors:
  0.043  0.893  0.027  0.037  0.000
  0.039  0.004  0.072  0.552  0.333
  0.023  0.019  0.605  0.019  0.333
  0.893  0.043  0.037  0.027  0.000
  0.002  0.041  0.260  0.364  0.333
    occupations:
  0.197 -0.016 -0.016  0.000 -0.033
 -0.016  0.376  0.036 -0.028 -0.036
 -0.016  0.036  0.376  0.028 -0.036
  0.000 -0.028  0.028  0.197 -0.000
 -0.033 -0.036 -0.036 -0.000  0.376
atomic mag. moment =     3.480393
atom    2   Tr[ns(na)] (up, down, total) =   1.51928  5.00100  6.52027
   spin  1
    eigenvalues: 
  0.186  0.186  0.350  0.350  0.447
    eigenvectors:
  0.371  0.567  0.038  0.024  0.000
  0.005  0.036  0.012  0.613  0.333
  0.040  0.001  0.538  0.087  0.333
  0.567  0.371  0.024  0.038  0.000
  0.016  0.025  0.387  0.238  0.333
    occupations:
  0.197 -0.016 -0.016  0.000 -0.032
 -0.016  0.375  0.036 -0.028 -0.036
 -0.016  0.036  0.375  0.028 -0.036
  0.000 -0.028  0.028  0.197 -0.000
 -0.032 -0.036 -0.036 -0.000  0.375
   spin  2
    eigenvalues: 
  0.999  0.999  1.001  1.001  1.001
    eigenvectors:
  0.114  0.886  0.000  0.000  0.000
  0.000  0.000  0.333  0.155  0.512
  0.000  0.000  0.333  0.179  0.488
  0.886  0.114  0.000  0.000  0.000
  0.000  0.000  0.333  0.666  0.000
    occupations:
  0.999 -0.000 -0.000  0.000 -0.000
 -0.000  1.001 -0.000 -0.000  0.000
 -0.000 -0.000  1.001  0.000  0.000
  0.000 -0.000  0.000  0.999 -0.000
 -0.000  0.000  0.000 -0.000  1.001
atomic mag. moment =    -3.481723
N of occupied +U levels =   13.041894
 --- exit write_ns ---
 --- in v_hubbard ---
Hubbard energy    0.3374
 -------

     total cpu time spent up to now is        5.8 secs

     total energy              =    -734.81288461 Ry
     Harris-Foulkes estimate   =    -734.67477892 Ry
     estimated scf accuracy    <       0.52981914 Ry

     total magnetization       =    -0.00 Bohr mag/cell
     absolute magnetization    =     7.75 Bohr mag/cell

     iteration #  3     ecut=    30.00 Ry     beta= 0.30
     Davidson diagonalization with overlap
     ethr =  1.20E-03,  avg # of iterations =  1.0
 --- enter write_ns ---
 LDA+U parameters:
U( 1)     =  5.20000000
alpha( 1) =  0.00000000
U( 2)     =  5.20000000
alpha( 2) =  0.00000000
atom    1   Tr[ns(na)] (up, down, total) =   5.00297  1.51069  6.51366
   spin  1
    eigenvalues: 
  0.999  0.999  1.002  1.002  1.002
    eigenvectors:
  0.051  0.948  0.000  0.000  0.000
  0.000  0.000  0.333  0.142  0.525
  0.000  0.000  0.333  0.193  0.474
  0.948  0.051  0.000  0.000  0.000
  0.000  0.000  0.333  0.665  0.001
    occupations:
  0.999 -0.000 -0.000  0.000 -0.000
 -0.000  1.002 -0.000 -0.000  0.000
 -0.000 -0.000  1.002  0.000  0.000
  0.000 -0.000  0.000  0.999 -0.000
 -0.000  0.000  0.000 -0.000  1.002
   spin  2
    eigenvalues: 
  0.181  0.181  0.320  0.320  0.509
    eigenvectors:
  0.324  0.604  0.045  0.028  0.000
  0.048  0.001  0.013  0.606  0.333
  0.008  0.040  0.533  0.085  0.333
  0.604  0.324  0.028  0.045  0.000
  0.017  0.031  0.381  0.237  0.333
    occupations:
  0.191 -0.015 -0.015  0.000 -0.030
 -0.015  0.376  0.066 -0.026 -0.066
 -0.015  0.066  0.376  0.026 -0.066
  0.000 -0.026  0.026  0.191 -0.000
 -0.030 -0.066 -0.066 -0.000  0.376
atomic mag. moment =     3.492278
atom    2   Tr[ns(na)] (up, down, total) =   1.51557  5.00296  6.51853
   spin  1
    eigenvalues: 
  0.181  0.181  0.322  0.322  0.511
    eigenvectors:
  0.000  0.930  0.043  0.027  0.000
  0.035  0.012  0.013  0.607  0.333
  0.035  0.012  0.535  0.085  0.333
  0.930  0.000  0.027  0.043  0.000
  0.000  0.047  0.383  0.237  0.333
    occupations:
  0.191 -0.015 -0.015  0.000 -0.029
 -0.015  0.378  0.066 -0.025 -0.066
 -0.015  0.066  0.378  0.025 -0.066
  0.000 -0.025  0.025  0.191 -0.000
 -0.029 -0.066 -0.066 -0.000  0.378
   spin  2
    eigenvalues: 
  0.999  0.999  1.002  1.002  1.002
    eigenvectors:
  0.171  0.829  0.000  0.000  0.000
  0.000  0.000  0.333  0.162  0.504
  0.000  0.000  0.333  0.171  0.495
  0.829  0.171  0.000  0.000  0.000
  0.000  0.000  0.333  0.666  0.000
    occupations:
  0.999 -0.000 -0.000  0.000 -0.000
 -0.000  1.002 -0.000 -0.000  0.000
 -0.000 -0.000  1.002  0.000  0.000
  0.000 -0.000  0.000  0.999 -0.000
 -0.000  0.000  0.000 -0.000  1.002
atomic mag. moment =    -3.487389
N of occupied +U levels =   13.032187
 --- exit write_ns ---
 --- in v_hubbard ---
Hubbard energy    0.3756
 -------

     total cpu time spent up to now is        7.0 secs

     total energy              =    -734.97422610 Ry
     Harris-Foulkes estimate   =    -734.81989918 Ry
     estimated scf accuracy    <       0.27919127 Ry

     total magnetization       =     0.01 Bohr mag/cell
     absolute magnetization    =     7.70 Bohr mag/cell

     iteration #  4     ecut=    30.00 Ry     beta= 0.30
     Davidson diagonalization with overlap
     ethr =  6.35E-04,  avg # of iterations =  2.0
 --- enter write_ns ---
 LDA+U parameters:
U( 1)     =  5.20000000
alpha( 1) =  0.00000000
U( 2)     =  5.20000000
alpha( 2) =  0.00000000
atom    1   Tr[ns(na)] (up, down, total) =   5.00227  1.62585  6.62812
   spin  1
    eigenvalues: 
  0.999  0.999  1.001  1.002  1.002
    eigenvectors:
  0.041  0.959  0.000  0.000  0.000
  0.000  0.000  0.333  0.125  0.542
  0.000  0.000  0.333  0.213  0.454
  0.959  0.041  0.000  0.000  0.000
  0.000  0.000  0.333  0.663  0.004
    occupations:
  0.999 -0.000 -0.000  0.000 -0.000
 -0.000  1.002 -0.000 -0.000  0.000
 -0.000 -0.000  1.002  0.000  0.000
  0.000 -0.000  0.000  0.999 -0.000
 -0.000  0.000  0.000 -0.000  1.002
   spin  2
    eigenvalues: 
  0.161  0.161  0.215  0.215  0.873
    eigenvectors:
  0.109  0.008  0.246  0.637  0.000
  0.292  0.297  0.017  0.060  0.333
  0.041  0.548  0.078  0.000  0.333
  0.008  0.109  0.637  0.246  0.000
  0.551  0.038  0.022  0.056  0.333
    occupations:
  0.209 -0.007 -0.007  0.000 -0.014
 -0.007  0.403  0.235 -0.012 -0.235
 -0.007  0.235  0.403  0.012 -0.235
  0.000 -0.012  0.012  0.209 -0.000
 -0.014 -0.235 -0.235 -0.000  0.403
atomic mag. moment =     3.376426
atom    2   Tr[ns(na)] (up, down, total) =   1.57741  5.00189  6.57930
   spin  1
    eigenvalues: 
  0.159  0.159  0.212  0.212  0.835
    eigenvectors:
  0.116  0.009  0.338  0.537  0.000
  0.293  0.290  0.011  0.072  0.333
  0.038  0.545  0.081  0.002  0.333
  0.009  0.116  0.537  0.338  0.000
  0.544  0.040  0.032  0.051  0.333
    occupations:
  0.205 -0.007 -0.007  0.000 -0.014
 -0.007  0.389  0.223 -0.012 -0.223
 -0.007  0.223  0.389  0.012 -0.223
  0.000 -0.012  0.012  0.205 -0.000
 -0.014 -0.223 -0.223 -0.000  0.389
   spin  2
    eigenvalues: 
  0.999  0.999  1.001  1.002  1.002
    eigenvectors:
  0.135  0.865  0.000  0.000  0.000
  0.000  0.000  0.333  0.126  0.541
  0.000  0.000  0.333  0.211  0.456
  0.865  0.135  0.000  0.000  0.000
  0.000  0.000  0.333  0.663  0.004
    occupations:
  0.999 -0.000 -0.000  0.000 -0.000
 -0.000  1.002 -0.000 -0.000  0.000
 -0.000 -0.000  1.002  0.000  0.000
  0.000 -0.000  0.000  0.999 -0.000
 -0.000  0.000  0.000 -0.000  1.002
atomic mag. moment =    -3.424485
N of occupied +U levels =   13.207424
 --- exit write_ns ---
 --- in v_hubbard ---
Hubbard energy    0.3821
 -------

     total cpu time spent up to now is        8.4 secs

     total energy              =    -734.96700842 Ry
     Harris-Foulkes estimate   =    -735.01373265 Ry
     estimated scf accuracy    <       0.09631505 Ry

     total magnetization       =    -0.04 Bohr mag/cell
     absolute magnetization    =     7.45 Bohr mag/cell

     iteration #  5     ecut=    30.00 Ry     beta= 0.30
     Davidson diagonalization with overlap
     ethr =  2.19E-04,  avg # of iterations =  1.0
 --- enter write_ns ---
 LDA+U parameters:
U( 1)     =  5.20000000
alpha( 1) =  0.00000000
U( 2)     =  5.20000000
alpha( 2) =  0.00000000
atom    1   Tr[ns(na)] (up, down, total) =   5.00254  1.83953  6.84207
   spin  1
    eigenvalues: 
  0.999  0.999  1.002  1.002  1.002
    eigenvectors:
  0.115  0.882  0.000  0.003  0.000
  0.001  0.001  0.333  0.087  0.578
  0.002  0.000  0.333  0.261  0.403
  0.882  0.115  0.000  0.000  0.003
  0.000  0.002  0.333  0.649  0.016
    occupations:
  0.999 -0.000 -0.000  0.000 -0.000
 -0.000  1.002 -0.000 -0.000  0.000
 -0.000 -0.000  1.002  0.000  0.000
  0.000 -0.000  0.000  0.999 -0.000
 -0.000  0.000  0.000 -0.000  1.002
   spin  2
    eigenvalues: 
  0.204  0.204  0.413  0.413  0.605
    eigenvectors:
  0.024  0.915  0.046  0.015  0.000
  0.025  0.016  0.000  0.626  0.333
  0.036  0.005  0.471  0.155  0.333
  0.915  0.024  0.015  0.046  0.000
  0.001  0.040  0.468  0.158  0.333
    occupations:
  0.217 -0.020 -0.020  0.000 -0.041
 -0.020  0.469  0.068 -0.035 -0.068
 -0.020  0.068  0.469  0.035 -0.068
  0.000 -0.035  0.035  0.217 -0.000
 -0.041 -0.068 -0.068 -0.000  0.469
atomic mag. moment =     3.163009
atom    2   Tr[ns(na)] (up, down, total) =   1.39525  5.00123  6.39648
   spin  1
    eigenvalues: 
  0.187  0.187  0.288  0.288  0.444
    eigenvectors:
  0.646  0.239  0.084  0.031  0.000
  0.059  0.018  0.000  0.589  0.333
  0.000  0.077  0.456  0.134  0.333
  0.239  0.646  0.031  0.084  0.000
  0.056  0.021  0.429  0.161  0.333
    occupations:
  0.199 -0.013 -0.013  0.000 -0.026
 -0.013  0.332  0.056 -0.023 -0.056
 -0.013  0.056  0.332  0.023 -0.056
  0.000 -0.023  0.023  0.199 -0.000
 -0.026 -0.056 -0.056 -0.000  0.332
   spin  2
    eigenvalues: 
  0.998  0.998  1.002  1.002  1.002
    eigenvectors:
  0.008  0.988  0.000  0.004  0.000
  0.002  0.001  0.333  0.106  0.558
  0.002  0.000  0.333  0.234  0.430
  0.988  0.008  0.000  0.000  0.004
  0.000  0.003  0.333  0.656  0.008
    occupations:
  0.998 -0.000 -0.000  0.000 -0.000
 -0.000  1.002 -0.000 -0.000  0.000
 -0.000 -0.000  1.002  0.000  0.000
  0.000 -0.000  0.000  0.998 -0.000
 -0.000  0.000  0.000 -0.000  1.002
atomic mag. moment =    -3.605985
N of occupied +U levels =   13.238549
 --- exit write_ns ---
 --- in v_hubbard ---
Hubbard energy    0.3829
 -------

     total cpu time spent up to now is        9.6 secs

     total energy              =    -734.97102585 Ry
     Harris-Foulkes estimate   =    -734.98587208 Ry
     estimated scf accuracy    <       0.10331170 Ry

     total magnetization       =    -0.43 Bohr mag/cell
     absolute magnetization    =     7.42 Bohr mag/cell

     iteration #  6     ecut=    30.00 Ry     beta= 0.30
     Davidson diagonalization with overlap
     ethr =  2.19E-04,  avg # of iterations =  1.0
 --- enter write_ns ---
 LDA+U parameters:
U( 1)     =  5.20000000
alpha( 1) =  0.00000000
U( 2)     =  5.20000000
alpha( 2) =  0.00000000
atom    1   Tr[ns(na)] (up, down, total) =   5.00161  1.54942  6.55103
   spin  1
    eigenvalues: 
  0.998  0.998  1.002  1.002  1.002
    eigenvectors:
  0.027  0.967  0.000  0.006  0.000
  0.002  0.002  0.333  0.060  0.602
  0.004  0.000  0.333  0.302  0.361
  0.967  0.027  0.000  0.000  0.006
  0.000  0.004  0.333  0.632  0.031
    occupations:
  0.998 -0.000 -0.000  0.000 -0.000
 -0.000  1.002 -0.000 -0.000  0.000
 -0.000 -0.000  1.002  0.000  0.000
  0.000 -0.000  0.000  0.998 -0.000
 -0.000  0.000  0.000 -0.000  1.002
   spin  2
    eigenvalues: 
  0.193  0.193  0.318  0.423  0.423
    eigenvectors:
  0.015  0.928  0.000  0.043  0.015
  0.033  0.006  0.333  0.000  0.628
  0.024  0.014  0.333  0.477  0.151
  0.928  0.015  0.000  0.015  0.043
  0.001  0.038  0.333  0.465  0.163
    occupations:
  0.206 -0.022 -0.022  0.000 -0.044
 -0.022  0.379 -0.031 -0.038  0.031
 -0.022 -0.031  0.379  0.038  0.031
  0.000 -0.038  0.038  0.206 -0.000
 -0.044  0.031  0.031 -0.000  0.379
atomic mag. moment =     3.452194
atom    2   Tr[ns(na)] (up, down, total) =   1.69656  5.00222  6.69879
   spin  1
    eigenvalues: 
  0.200  0.200  0.399  0.449  0.449
    eigenvectors:
  0.027  0.919  0.000  0.031  0.023
  0.032  0.004  0.333  0.021  0.609
  0.021  0.015  0.333  0.561  0.070
  0.919  0.027  0.000  0.023  0.031
  0.001  0.035  0.333  0.364  0.267
    occupations:
  0.213 -0.023 -0.023  0.000 -0.046
 -0.023  0.423 -0.012 -0.040  0.012
 -0.023 -0.012  0.423  0.040  0.012
  0.000 -0.040  0.040  0.213 -0.000
 -0.046  0.012  0.012 -0.000  0.423
   spin  2
    eigenvalues: 
  0.999  0.999  1.002  1.002  1.002
    eigenvectors:
  0.006  0.988  0.000  0.005  0.000
  0.002  0.001  0.333  0.061  0.602
  0.003  0.001  0.333  0.300  0.363
  0.988  0.006  0.000  0.000  0.005
  0.000  0.004  0.333  0.633  0.030
    occupations:
  0.999 -0.000 -0.000  0.000 -0.000
 -0.000  1.002 -0.000 -0.000  0.000
 -0.000 -0.000  1.002  0.000  0.000
  0.000 -0.000  0.000  0.999 -0.000
 -0.000  0.000  0.000 -0.000  1.002
atomic mag. moment =    -3.305659
N of occupied +U levels =   13.249820
 --- exit write_ns ---
 --- in v_hubbard ---
Hubbard energy    0.3893
 -------

     total cpu time spent up to now is       10.9 secs

     total energy              =    -734.98859993 Ry
     Harris-Foulkes estimate   =    -734.98199224 Ry
     estimated scf accuracy    <       0.01603797 Ry

     total magnetization       =     0.14 Bohr mag/cell
     absolute magnetization    =     7.41 Bohr mag/cell

     iteration #  7     ecut=    30.00 Ry     beta= 0.30
     Davidson diagonalization with overlap
     ethr =  3.64E-05,  avg # of iterations =  1.9
 --- enter write_ns ---
 LDA+U parameters:
U( 1)     =  5.20000000
alpha( 1) =  0.00000000
U( 2)     =  5.20000000
alpha( 2) =  0.00000000
atom    1   Tr[ns(na)] (up, down, total) =   5.00153  1.63485  6.63638
   spin  1
    eigenvalues: 
  0.998  0.998  1.002  1.002  1.002
    eigenvectors:
  0.001  0.993  0.000  0.005  0.000
  0.003  0.001  0.333  0.094  0.569
  0.003  0.001  0.333  0.250  0.414
  0.993  0.001  0.000  0.000  0.005
  0.000  0.004  0.333  0.651  0.012
    occupations:
  0.998 -0.000 -0.000  0.000 -0.000
 -0.000  1.002 -0.000 -0.000  0.000
 -0.000 -0.000  1.002  0.000  0.000
  0.000 -0.000  0.000  0.998 -0.000
 -0.000  0.000  0.000 -0.000  1.002
   spin  2
    eigenvalues: 
  0.199  0.199  0.360  0.439  0.439
    eigenvectors:
  0.933  0.000  0.000  0.042  0.025
  0.012  0.033  0.333  0.011  0.611
  0.011  0.034  0.333  0.532  0.090
  0.000  0.933  0.000  0.025  0.042
  0.044  0.000  0.333  0.390  0.232
    occupations:
  0.215 -0.024 -0.024  0.000 -0.049
 -0.024  0.402 -0.021 -0.042  0.021
 -0.024 -0.021  0.402  0.042  0.021
  0.000 -0.042  0.042  0.215 -0.000
 -0.049  0.021  0.021 -0.000  0.402
atomic mag. moment =     3.366684
atom    2   Tr[ns(na)] (up, down, total) =   1.65063  5.00160  6.65224
   spin  1
    eigenvalues: 
  0.200  0.200  0.414  0.414  0.422
    eigenvectors:
  0.115  0.813  0.048  0.025  0.000
  0.047  0.001  0.006  0.612  0.333
  0.020  0.029  0.514  0.104  0.333
  0.813  0.115  0.025  0.048  0.000
  0.006  0.043  0.407  0.211  0.333
    occupations:
  0.216 -0.023 -0.023  0.000 -0.045
 -0.023  0.406  0.008 -0.039 -0.008
 -0.023  0.008  0.406  0.039 -0.008
  0.000 -0.039  0.039  0.216 -0.000
 -0.045 -0.008 -0.008 -0.000  0.406
   spin  2
    eigenvalues: 
  0.998  0.998  1.002  1.002  1.002
    eigenvectors:
  0.072  0.922  0.000  0.006  0.000
  0.002  0.002  0.333  0.059  0.604
  0.004  0.000  0.333  0.305  0.358
  0.922  0.072  0.000  0.000  0.006
  0.000  0.004  0.333  0.631  0.032
    occupations:
  0.998 -0.000 -0.000  0.000 -0.000
 -0.000  1.002 -0.000 -0.000  0.000
 -0.000 -0.000  1.002  0.000  0.000
  0.000 -0.000  0.000  0.998 -0.000
 -0.000  0.000  0.000 -0.000  1.002
atomic mag. moment =    -3.350971
N of occupied +U levels =   13.288617
 --- exit write_ns ---
 --- in v_hubbard ---
Hubbard energy    0.3954
 -------

     total cpu time spent up to now is       12.1 secs

     total energy              =    -734.99240356 Ry
     Harris-Foulkes estimate   =    -734.98951390 Ry
     estimated scf accuracy    <       0.00301909 Ry

     total magnetization       =     0.01 Bohr mag/cell
     absolute magnetization    =     7.38 Bohr mag/cell

     iteration #  8     ecut=    30.00 Ry     beta= 0.30
     Davidson diagonalization with overlap
     ethr =  6.86E-06,  avg # of iterations =  1.9
 --- enter write_ns ---
 LDA+U parameters:
U( 1)     =  5.20000000
alpha( 1) =  0.00000000
U( 2)     =  5.20000000
alpha( 2) =  0.00000000
atom    1   Tr[ns(na)] (up, down, total) =   5.00153  1.63292  6.63444
   spin  1
    eigenvalues: 
  0.998  0.998  1.002  1.002  1.002
    eigenvectors:
  0.064  0.933  0.000  0.003  0.000
  0.001  0.001  0.333  0.116  0.549
  0.002  0.000  0.333  0.222  0.442
  0.933  0.064  0.000  0.000  0.003
  0.000  0.002  0.333  0.659  0.006
    occupations:
  0.998 -0.000 -0.000  0.000 -0.000
 -0.000  1.002 -0.000 -0.000  0.000
 -0.000 -0.000  1.002  0.000  0.000
  0.000 -0.000  0.000  0.998 -0.000
 -0.000  0.000  0.000 -0.000  1.002
   spin  2
    eigenvalues: 
  0.198  0.198  0.386  0.426  0.426
    eigenvectors:
  0.268  0.651  0.000  0.059  0.022
  0.054  0.000  0.333  0.000  0.612
  0.011  0.043  0.333  0.470  0.142
  0.651  0.268  0.000  0.022  0.059
  0.016  0.038  0.333  0.448  0.164
    occupations:
  0.216 -0.025 -0.025  0.000 -0.051
 -0.025  0.400 -0.007 -0.044  0.007
 -0.025 -0.007  0.400  0.044  0.007
  0.000 -0.044  0.044  0.216 -0.000
 -0.051  0.007  0.007 -0.000  0.400
atomic mag. moment =     3.368609
atom    2   Tr[ns(na)] (up, down, total) =   1.65005  5.00140  6.65145
   spin  1
    eigenvalues: 
  0.197  0.197  0.345  0.345  0.565
    eigenvectors:
  0.300  0.584  0.066  0.050  0.000
  0.076  0.001  0.022  0.567  0.333
  0.013  0.064  0.528  0.062  0.333
  0.584  0.300  0.050  0.066  0.000
  0.026  0.051  0.334  0.255  0.333
    occupations:
  0.214 -0.019 -0.019  0.000 -0.039
 -0.019  0.407  0.079 -0.034 -0.079
 -0.019  0.079  0.407  0.034 -0.079
  0.000 -0.034  0.034  0.214 -0.000
 -0.039 -0.079 -0.079 -0.000  0.407
   spin  2
    eigenvalues: 
  0.998  0.998  1.002  1.002  1.002
    eigenvectors:
  0.285  0.709  0.000  0.005  0.000
  0.001  0.003  0.333  0.090  0.573
  0.003  0.000  0.333  0.255  0.408
  0.709  0.285  0.000  0.000  0.005
  0.001  0.002  0.333  0.649  0.014
    occupations:
  0.998 -0.000 -0.000  0.000 -0.000
 -0.000  1.002 -0.000 -0.000  0.000
 -0.000 -0.000  1.002  0.000  0.000
  0.000 -0.000  0.000  0.998 -0.000
 -0.000  0.000  0.000 -0.000  1.002
atomic mag. moment =    -3.351356
N of occupied +U levels =   13.285887
 --- exit write_ns ---
 --- in v_hubbard ---
Hubbard energy    0.3965
 -------

     total cpu time spent up to now is       13.4 secs

     total energy              =    -734.99351627 Ry
     Harris-Foulkes estimate   =    -734.99381575 Ry
     estimated scf accuracy    <       0.00590862 Ry

     total magnetization       =     0.02 Bohr mag/cell
     absolute magnetization    =     7.38 Bohr mag/cell

     iteration #  9     ecut=    30.00 Ry     beta= 0.30
     Davidson diagonalization with overlap
     ethr =  6.86E-06,  avg # of iterations =  1.1
 --- enter write_ns ---
 LDA+U parameters:
U( 1)     =  5.20000000
alpha( 1) =  0.00000000
U( 2)     =  5.20000000
alpha( 2) =  0.00000000
atom    1   Tr[ns(na)] (up, down, total) =   5.00158  1.64952  6.65110
   spin  1
    eigenvalues: 
  0.998  0.998  1.002  1.002  1.002
    eigenvectors:
  0.000  0.997  0.000  0.003  0.000
  0.001  0.000  0.333  0.093  0.572
  0.001  0.000  0.333  0.252  0.413
  0.997  0.000  0.000  0.000  0.003
  0.000  0.002  0.333  0.652  0.013
    occupations:
  0.998 -0.000 -0.000  0.000 -0.000
 -0.000  1.002 -0.000 -0.000  0.000
 -0.000 -0.000  1.002  0.000  0.000
  0.000 -0.000  0.000  0.998 -0.000
 -0.000  0.000  0.000 -0.000  1.002
   spin  2
    eigenvalues: 
  0.196  0.196  0.351  0.351  0.555
    eigenvectors:
  0.187  0.696  0.063  0.054  0.000
  0.078  0.000  0.029  0.560  0.333
  0.023  0.055  0.537  0.052  0.333
  0.696  0.187  0.054  0.063  0.000
  0.016  0.061  0.317  0.271  0.333
    occupations:
  0.214 -0.020 -0.020  0.000 -0.041
 -0.020  0.407  0.074 -0.035 -0.074
 -0.020  0.074  0.407  0.035 -0.074
  0.000 -0.035  0.035  0.214 -0.000
 -0.041 -0.074 -0.074 -0.000  0.407
atomic mag. moment =     3.352064
atom    2   Tr[ns(na)] (up, down, total) =   1.62112  5.00142  6.62255
   spin  1
    eigenvalues: 
  0.195  0.195  0.318  0.318  0.595
    eigenvectors:
  0.022  0.838  0.059  0.081  0.000
  0.056  0.037  0.064  0.509  0.333
  0.082  0.012  0.554  0.019  0.333
  0.838  0.022  0.081  0.059  0.000
  0.002  0.091  0.242  0.332  0.333
    occupations:
  0.212 -0.017 -0.017  0.000 -0.035
 -0.017  0.399  0.098 -0.030 -0.098
 -0.017  0.098  0.399  0.030 -0.098
  0.000 -0.030  0.030  0.212 -0.000
 -0.035 -0.098 -0.098 -0.000  0.399
   spin  2
    eigenvalues: 
  0.998  0.998  1.002  1.002  1.002
    eigenvectors:
  0.104  0.893  0.000  0.003  0.000
  0.001  0.001  0.333  0.061  0.604
  0.002  0.000  0.333  0.302  0.362
  0.893  0.104  0.000  0.000  0.003
  0.000  0.002  0.333  0.634  0.031
    occupations:
  0.998 -0.000 -0.000  0.000 -0.000
 -0.000  1.002 -0.000 -0.000  0.000
 -0.000 -0.000  1.002  0.000  0.000
  0.000 -0.000  0.000  0.998 -0.000
 -0.000  0.000  0.000 -0.000  1.002
atomic mag. moment =    -3.380296
N of occupied +U levels =   13.273642
 --- exit write_ns ---
 --- in v_hubbard ---
Hubbard energy    0.3990
 -------

     total cpu time spent up to now is       14.6 secs

     total energy              =    -734.98154856 Ry
     Harris-Foulkes estimate   =    -734.99533642 Ry
     estimated scf accuracy    <       0.01288683 Ry

     total magnetization       =    -0.02 Bohr mag/cell
     absolute magnetization    =     7.39 Bohr mag/cell

     iteration # 10     ecut=    30.00 Ry     beta= 0.30
     Davidson diagonalization with overlap
     ethr =  6.86E-06,  avg # of iterations =  2.2
 --- enter write_ns ---
 LDA+U parameters:
U( 1)     =  5.20000000
alpha( 1) =  0.00000000
U( 2)     =  5.20000000
alpha( 2) =  0.00000000
atom    1   Tr[ns(na)] (up, down, total) =   5.00116  1.64301  6.64417
   spin  1
    eigenvalues: 
  0.998  0.998  1.002  1.002  1.002
    eigenvectors:
  0.032  0.962  0.000  0.007  0.000
  0.003  0.002  0.333  0.083  0.579
  0.004  0.001  0.333  0.265  0.398
  0.962  0.032  0.000  0.000  0.007
  0.000  0.004  0.333  0.645  0.017
    occupations:
  0.998 -0.000 -0.000  0.000 -0.000
 -0.000  1.002 -0.000 -0.000  0.000
 -0.000 -0.000  1.002  0.000  0.000
  0.000 -0.000  0.000  0.998 -0.000
 -0.000  0.000  0.000 -0.000  1.002
   spin  2
    eigenvalues: 
  0.198  0.198  0.352  0.447  0.447
    eigenvectors:
  0.401  0.521  0.000  0.053  0.025
  0.050  0.002  0.333  0.004  0.611
  0.005  0.046  0.333  0.501  0.114
  0.521  0.401  0.000  0.025  0.053
  0.023  0.029  0.333  0.418  0.197
    occupations:
  0.218 -0.027 -0.027  0.000 -0.054
 -0.027  0.403 -0.025 -0.047  0.025
 -0.027 -0.025  0.403  0.047  0.025
  0.000 -0.047  0.047  0.218 -0.000
 -0.054  0.025  0.025 -0.000  0.403
atomic mag. moment =     3.358149
atom    2   Tr[ns(na)] (up, down, total) =   1.65904  5.00139  6.66042
   spin  1
    eigenvalues: 
  0.201  0.201  0.304  0.477  0.477
    eigenvectors:
  0.929  0.002  0.000  0.046  0.024
  0.013  0.033  0.333  0.006  0.614
  0.010  0.036  0.333  0.517  0.104
  0.002  0.929  0.000  0.024  0.046
  0.046  0.000  0.333  0.408  0.213
    occupations:
  0.220 -0.029 -0.029  0.000 -0.057
 -0.029  0.406 -0.051 -0.050  0.051
 -0.029 -0.051  0.406  0.050  0.051
  0.000 -0.050  0.050  0.220 -0.000
 -0.057  0.051  0.051 -0.000  0.406
   spin  2
    eigenvalues: 
  0.998  0.998  1.002  1.002  1.002
    eigenvectors:
  0.127  0.867  0.000  0.006  0.000
  0.002  0.003  0.333  0.054  0.609
  0.004  0.000  0.333  0.313  0.349
  0.867  0.127  0.000  0.000  0.006
  0.001  0.004  0.333  0.627  0.036
    occupations:
  0.998 -0.000 -0.000  0.000 -0.000
 -0.000  1.002 -0.000 -0.000  0.000
 -0.000 -0.000  1.002  0.000  0.000
  0.000 -0.000  0.000  0.998 -0.000
 -0.000  0.000  0.000 -0.000  1.002
atomic mag. moment =    -3.342352
N of occupied +U levels =   13.304594
 --- exit write_ns ---
 --- in v_hubbard ---
Hubbard energy    0.3993
 -------

     total cpu time spent up to now is       15.9 secs

     total energy              =    -734.99453707 Ry
     Harris-Foulkes estimate   =    -734.99127804 Ry
     estimated scf accuracy    <       0.00509673 Ry

     total magnetization       =     0.01 Bohr mag/cell
     absolute magnetization    =     7.37 Bohr mag/cell

     iteration # 11     ecut=    30.00 Ry     beta= 0.30
     Davidson diagonalization with overlap
     ethr =  6.86E-06,  avg # of iterations =  1.2
 --- enter write_ns ---
 LDA+U parameters:
U( 1)     =  5.20000000
alpha( 1) =  0.00000000
U( 2)     =  5.20000000
alpha( 2) =  0.00000000
atom    1   Tr[ns(na)] (up, down, total) =   5.00118  1.64427  6.64545
   spin  1
    eigenvalues: 
  0.998  0.998  1.002  1.002  1.002
    eigenvectors:
  0.080  0.914  0.000  0.006  0.000
  0.002  0.002  0.333  0.059  0.603
  0.004  0.000  0.333  0.304  0.358
  0.914  0.080  0.000  0.000  0.006
  0.000  0.004  0.333  0.631  0.032
    occupations:
  0.998 -0.000 -0.000  0.000 -0.000
 -0.000  1.002 -0.000 -0.000  0.000
 -0.000 -0.000  1.002  0.000  0.000
  0.000 -0.000  0.000  0.998 -0.000
 -0.000  0.000  0.000 -0.000  1.002
   spin  2
    eigenvalues: 
  0.198  0.198  0.362  0.443  0.443
    eigenvectors:
  0.862  0.055  0.000  0.054  0.028
  0.027  0.028  0.333  0.006  0.606
  0.004  0.051  0.333  0.507  0.104
  0.055  0.862  0.000  0.028  0.054
  0.052  0.003  0.333  0.405  0.207
    occupations:
  0.218 -0.028 -0.028  0.000 -0.055
 -0.028  0.403 -0.020 -0.048  0.020
 -0.028 -0.020  0.403  0.048  0.020
  0.000 -0.048  0.048  0.218 -0.000
 -0.055  0.020  0.020 -0.000  0.403
atomic mag. moment =     3.356908
atom    2   Tr[ns(na)] (up, down, total) =   1.65583  5.00137  6.65719
   spin  1
    eigenvalues: 
  0.200  0.200  0.315  0.471  0.471
    eigenvectors:
  0.837  0.088  0.000  0.045  0.030
  0.002  0.048  0.333  0.015  0.601
  0.027  0.022  0.333  0.538  0.079
  0.088  0.837  0.000  0.030  0.045
  0.045  0.005  0.333  0.372  0.245
    occupations:
  0.220 -0.029 -0.029  0.000 -0.058
 -0.029  0.405 -0.045 -0.050  0.045
 -0.029 -0.045  0.405  0.050  0.045
  0.000 -0.050  0.050  0.220 -0.000
 -0.058  0.045  0.045 -0.000  0.405
   spin  2
    eigenvalues: 
  0.998  0.998  1.002  1.002  1.002
    eigenvectors:
  0.004  0.990  0.000  0.006  0.000
  0.003  0.001  0.333  0.046  0.617
  0.003  0.001  0.333  0.329  0.334
  0.990  0.004  0.000  0.000  0.006
  0.000  0.004  0.333  0.620  0.043
    occupations:
  0.998 -0.000 -0.000  0.000 -0.000
 -0.000  1.002 -0.000 -0.000  0.000
 -0.000 -0.000  1.002  0.000  0.000
  0.000 -0.000  0.000  0.998 -0.000
 -0.000  0.000  0.000 -0.000  1.002
atomic mag. moment =    -3.345539
N of occupied +U levels =   13.302638
 --- exit write_ns ---
 --- in v_hubbard ---
Hubbard energy    0.3992
 -------

     total cpu time spent up to now is       17.1 secs

     total energy              =    -734.99410122 Ry
     Harris-Foulkes estimate   =    -734.99458609 Ry
     estimated scf accuracy    <       0.00490525 Ry

     total magnetization       =     0.01 Bohr mag/cell
     absolute magnetization    =     7.37 Bohr mag/cell

     iteration # 12     ecut=    30.00 Ry     beta= 0.30
     Davidson diagonalization with overlap
     ethr =  6.86E-06,  avg # of iterations =  1.5
 --- enter write_ns ---
 LDA+U parameters:
U( 1)     =  5.20000000
alpha( 1) =  0.00000000
U( 2)     =  5.20000000
alpha( 2) =  0.00000000
atom    1   Tr[ns(na)] (up, down, total) =   5.00129  1.64858  6.64987
   spin  1
    eigenvalues: 
  0.998  0.998  1.002  1.002  1.002
    eigenvectors:
  0.004  0.990  0.000  0.006  0.000
  0.003  0.001  0.333  0.073  0.589
  0.003  0.001  0.333  0.280  0.383
  0.990  0.004  0.000  0.000  0.006
  0.000  0.004  0.333  0.641  0.022
    occupations:
  0.998 -0.000 -0.000  0.000 -0.000
 -0.000  1.002 -0.000 -0.000  0.000
 -0.000 -0.000  1.002  0.000  0.000
  0.000 -0.000  0.000  0.998 -0.000
 -0.000  0.000  0.000 -0.000  1.002
   spin  2
    eigenvalues: 
  0.197  0.197  0.403  0.426  0.426
    eigenvectors:
  0.368  0.541  0.000  0.058  0.034
  0.059  0.002  0.333  0.011  0.595
  0.007  0.054  0.333  0.518  0.088
  0.541  0.368  0.000  0.034  0.058
  0.025  0.036  0.333  0.380  0.226
    occupations:
  0.218 -0.027 -0.027  0.000 -0.054
 -0.027  0.404 -0.000 -0.047  0.000
 -0.027 -0.000  0.404  0.047  0.000
  0.000 -0.047  0.047  0.218 -0.000
 -0.054  0.000  0.000 -0.000  0.404
atomic mag. moment =     3.352706
atom    2   Tr[ns(na)] (up, down, total) =   1.64560  5.00137  6.64696
   spin  1
    eigenvalues: 
  0.197  0.197  0.361  0.445  0.445
    eigenvectors:
  0.275  0.639  0.000  0.057  0.029
  0.057  0.000  0.333  0.005  0.604
  0.012  0.046  0.333  0.503  0.107
  0.639  0.275  0.000  0.029  0.057
  0.017  0.040  0.333  0.406  0.203
    occupations:
  0.219 -0.028 -0.028  0.000 -0.057
 -0.028  0.403 -0.021 -0.049  0.021
 -0.028 -0.021  0.403  0.049  0.021
  0.000 -0.049  0.049  0.219 -0.000
 -0.057  0.021  0.021 -0.000  0.403
   spin  2
    eigenvalues: 
  0.998  0.998  1.002  1.002  1.002
    eigenvectors:
  0.095  0.900  0.000  0.005  0.000
  0.002  0.002  0.333  0.101  0.563
  0.003  0.000  0.333  0.241  0.422
  0.900  0.095  0.000  0.000  0.005
  0.000  0.003  0.333  0.653  0.010
    occupations:
  0.998 -0.000 -0.000  0.000 -0.000
 -0.000  1.002 -0.000 -0.000  0.000
 -0.000 -0.000  1.002  0.000  0.000
  0.000 -0.000  0.000  0.998 -0.000
 -0.000  0.000  0.000 -0.000  1.002
atomic mag. moment =    -3.355770
N of occupied +U levels =   13.296836
 --- exit write_ns ---
 --- in v_hubbard ---
Hubbard energy    0.3985
 -------

     total cpu time spent up to now is       18.3 secs

     total energy              =    -734.99406345 Ry
     Harris-Foulkes estimate   =    -734.99443772 Ry
     estimated scf accuracy    <       0.00202909 Ry

     total magnetization       =    -0.01 Bohr mag/cell
     absolute magnetization    =     7.37 Bohr mag/cell

     iteration # 13     ecut=    30.00 Ry     beta= 0.30
     Davidson diagonalization with overlap
     ethr =  4.61E-06,  avg # of iterations =  1.7
 --- enter write_ns ---
 LDA+U parameters:
U( 1)     =  5.20000000
alpha( 1) =  0.00000000
U( 2)     =  5.20000000
alpha( 2) =  0.00000000
atom    1   Tr[ns(na)] (up, down, total) =   5.00117  1.62865  6.62983
   spin  1
    eigenvalues: 
  0.998  0.998  1.002  1.002  1.002
    eigenvectors:
  0.236  0.760  0.000  0.005  0.000
  0.001  0.002  0.333  0.073  0.590
  0.003  0.000  0.333  0.281  0.383
  0.760  0.236  0.000  0.000  0.005
  0.001  0.002  0.333  0.641  0.022
    occupations:
  0.998 -0.000 -0.000  0.000 -0.000
 -0.000  1.002 -0.000 -0.000  0.000
 -0.000 -0.000  1.002  0.000  0.000
  0.000 -0.000  0.000  0.998 -0.000
 -0.000  0.000  0.000 -0.000  1.002
   spin  2
    eigenvalues: 
  0.196  0.196  0.373  0.432  0.432
    eigenvectors:
  0.658  0.238  0.000  0.048  0.055
  0.053  0.016  0.333  0.050  0.548
  0.000  0.069  0.333  0.567  0.031
  0.238  0.658  0.000  0.055  0.048
  0.051  0.018  0.333  0.279  0.318
    occupations:
  0.220 -0.029 -0.029  0.000 -0.059
 -0.029  0.396 -0.012 -0.051  0.012
 -0.029 -0.012  0.396  0.051  0.012
  0.000 -0.051  0.051  0.220 -0.000
 -0.059  0.012  0.012 -0.000  0.396
atomic mag. moment =     3.372517
atom    2   Tr[ns(na)] (up, down, total) =   1.67830  5.00142  6.67972
   spin  1
    eigenvalues: 
  0.198  0.198  0.418  0.433  0.433
    eigenvectors:
  0.733  0.162  0.000  0.072  0.033
  0.047  0.023  0.333  0.003  0.593
  0.000  0.070  0.333  0.485  0.112
  0.162  0.733  0.000  0.033  0.072
  0.057  0.013  0.333  0.406  0.190
    occupations:
  0.222 -0.029 -0.029  0.000 -0.059
 -0.029  0.411  0.003 -0.051 -0.003
 -0.029  0.003  0.411  0.051 -0.003
  0.000 -0.051  0.051  0.222 -0.000
 -0.059 -0.003 -0.003 -0.000  0.411
   spin  2
    eigenvalues: 
  0.998  0.998  1.002  1.002  1.002
    eigenvectors:
  0.096  0.900  0.000  0.005  0.000
  0.001  0.002  0.333  0.086  0.577
  0.003  0.000  0.333  0.261  0.402
  0.900  0.096  0.000  0.000  0.005
  0.000  0.003  0.333  0.648  0.016
    occupations:
  0.998 -0.000 -0.000  0.000 -0.000
 -0.000  1.002 -0.000 -0.000  0.000
 -0.000 -0.000  1.002  0.000  0.000
  0.000 -0.000  0.000  0.998 -0.000
 -0.000  0.000  0.000 -0.000  1.002
atomic mag. moment =    -3.323119
N of occupied +U levels =   13.309541
 --- exit write_ns ---
 --- in v_hubbard ---
Hubbard energy    0.3980
 -------

     total cpu time spent up to now is       19.6 secs

     total energy              =    -734.99395714 Ry
     Harris-Foulkes estimate   =    -734.99440528 Ry
     estimated scf accuracy    <       0.00287507 Ry

     total magnetization       =     0.05 Bohr mag/cell
     absolute magnetization    =     7.36 Bohr mag/cell

     iteration # 14     ecut=    30.00 Ry     beta= 0.30
     Davidson diagonalization with overlap
     ethr =  4.61E-06,  avg # of iterations =  1.7
 --- enter write_ns ---
 LDA+U parameters:
U( 1)     =  5.20000000
alpha( 1) =  0.00000000
U( 2)     =  5.20000000
alpha( 2) =  0.00000000
atom    1   Tr[ns(na)] (up, down, total) =   5.00120  1.62479  6.62600
   spin  1
    eigenvalues: 
  0.998  0.998  1.002  1.002  1.002
    eigenvectors:
  0.162  0.835  0.000  0.004  0.000
  0.001  0.002  0.333  0.080  0.584
  0.002  0.000  0.333  0.271  0.394
  0.835  0.162  0.000  0.000  0.004
  0.000  0.002  0.333  0.645  0.019
    occupations:
  0.998 -0.000 -0.000  0.000 -0.000
 -0.000  1.002 -0.000 -0.000  0.000
 -0.000 -0.000  1.002  0.000  0.000
  0.000 -0.000  0.000  0.998 -0.000
 -0.000  0.000  0.000 -0.000  1.002
   spin  2
    eigenvalues: 
  0.194  0.194  0.383  0.427  0.427
    eigenvectors:
  0.548  0.336  0.000  0.065  0.051
  0.067  0.011  0.333  0.024  0.565
  0.002  0.076  0.333  0.531  0.058
  0.336  0.548  0.000  0.051  0.065
  0.048  0.030  0.333  0.329  0.260
    occupations:
  0.221 -0.030 -0.030  0.000 -0.061
 -0.030  0.394 -0.005 -0.053  0.005
 -0.030 -0.005  0.394  0.053  0.005
  0.000 -0.053  0.053  0.221 -0.000
 -0.061  0.005  0.005 -0.000  0.394
atomic mag. moment =     3.376413
atom    2   Tr[ns(na)] (up, down, total) =   1.68098  5.00141  6.68238
   spin  1
    eigenvalues: 
  0.196  0.196  0.413  0.413  0.463
    eigenvectors:
  0.577  0.299  0.082  0.042  0.000
  0.069  0.014  0.006  0.578  0.333
  0.001  0.082  0.484  0.099  0.333
  0.299  0.577  0.042  0.082  0.000
  0.055  0.028  0.386  0.198  0.333
    occupations:
  0.223 -0.029 -0.029  0.000 -0.059
 -0.029  0.412  0.025 -0.051 -0.025
 -0.029  0.025  0.412  0.051 -0.025
  0.000 -0.051  0.051  0.223 -0.000
 -0.059 -0.025 -0.025 -0.000  0.412
   spin  2
    eigenvalues: 
  0.998  0.998  1.002  1.002  1.002
    eigenvectors:
  0.030  0.966  0.000  0.004  0.000
  0.002  0.001  0.333  0.094  0.570
  0.002  0.000  0.333  0.251  0.413
  0.966  0.030  0.000  0.000  0.004
  0.000  0.003  0.333  0.651  0.013
    occupations:
  0.998 -0.000 -0.000  0.000 -0.000
 -0.000  1.002 -0.000 -0.000  0.000
 -0.000 -0.000  1.002  0.000  0.000
  0.000 -0.000  0.000  0.998 -0.000
 -0.000  0.000  0.000 -0.000  1.002
atomic mag. moment =    -3.320427
N of occupied +U levels =   13.308380
 --- exit write_ns ---
 --- in v_hubbard ---
Hubbard energy    0.3978
 -------

     total cpu time spent up to now is       20.8 secs

     total energy              =    -734.99365548 Ry
     Harris-Foulkes estimate   =    -734.99413940 Ry
     estimated scf accuracy    <       0.00246180 Ry

     total magnetization       =     0.06 Bohr mag/cell
     absolute magnetization    =     7.36 Bohr mag/cell

     iteration # 15     ecut=    30.00 Ry     beta= 0.30
     Davidson diagonalization with overlap
     ethr =  4.61E-06,  avg # of iterations =  1.0
 --- enter write_ns ---
 LDA+U parameters:
U( 1)     =  5.20000000
alpha( 1) =  0.00000000
U( 2)     =  5.20000000
alpha( 2) =  0.00000000
atom    1   Tr[ns(na)] (up, down, total) =   5.00128  1.64311  6.64439
   spin  1
    eigenvalues: 
  0.998  0.998  1.002  1.002  1.002
    eigenvectors:
  0.023  0.973  0.000  0.004  0.000
  0.001  0.001  0.333  0.096  0.568
  0.002  0.000  0.333  0.248  0.417
  0.973  0.023  0.000  0.000  0.004
  0.000  0.002  0.333  0.653  0.012
    occupations:
  0.998 -0.000 -0.000  0.000 -0.000
 -0.000  1.002 -0.000 -0.000  0.000
 -0.000 -0.000  1.002  0.000  0.000
  0.000 -0.000  0.000  0.998 -0.000
 -0.000  0.000  0.000 -0.000  1.002
   spin  2
    eigenvalues: 
  0.193  0.193  0.410  0.410  0.437
    eigenvectors:
  0.772  0.098  0.084  0.046  0.000
  0.050  0.036  0.007  0.573  0.333
  0.003  0.084  0.487  0.093  0.333
  0.098  0.772  0.046  0.084  0.000
  0.077  0.010  0.376  0.204  0.333
    occupations:
  0.221 -0.030 -0.030  0.000 -0.059
 -0.030  0.400  0.019 -0.052 -0.019
 -0.030  0.019  0.400  0.052 -0.019
  0.000 -0.052  0.052  0.221 -0.000
 -0.059 -0.019 -0.019 -0.000  0.400
atomic mag. moment =     3.358174
atom    2   Tr[ns(na)] (up, down, total) =   1.65605  5.00134  6.65739
   spin  1
    eigenvalues: 
  0.194  0.194  0.414  0.414  0.440
    eigenvectors:
  0.680  0.193  0.074  0.052  0.000
  0.061  0.024  0.018  0.565  0.333
  0.000  0.084  0.515  0.068  0.333
  0.193  0.680  0.052  0.074  0.000
  0.066  0.019  0.341  0.241  0.333
    occupations:
  0.222 -0.030 -0.030  0.000 -0.060
 -0.030  0.404  0.018 -0.052 -0.018
 -0.030  0.018  0.404  0.052 -0.018
  0.000 -0.052  0.052  0.222 -0.000
 -0.060 -0.018 -0.018 -0.000  0.404
   spin  2
    eigenvalues: 
  0.998  0.998  1.002  1.002  1.002
    eigenvectors:
  0.111  0.886  0.000  0.003  0.000
  0.001  0.001  0.333  0.044  0.620
  0.002  0.000  0.333  0.333  0.331
  0.886  0.111  0.000  0.000  0.003
  0.000  0.002  0.333  0.619  0.045
    occupations:
  0.998 -0.000 -0.000  0.000 -0.000
 -0.000  1.002 -0.000 -0.000  0.000
 -0.000 -0.000  1.002  0.000  0.000
  0.000 -0.000  0.000  0.998 -0.000
 -0.000  0.000  0.000 -0.000  1.002
atomic mag. moment =    -3.345290
N of occupied +U levels =   13.301787
 --- exit write_ns ---
 --- in v_hubbard ---
Hubbard energy    0.3975
 -------

     total cpu time spent up to now is       22.0 secs

     total energy              =    -734.99394389 Ry
     Harris-Foulkes estimate   =    -734.99388003 Ry
     estimated scf accuracy    <       0.00016226 Ry

     total magnetization       =     0.01 Bohr mag/cell
     absolute magnetization    =     7.37 Bohr mag/cell

     iteration # 16     ecut=    30.00 Ry     beta= 0.30
     Davidson diagonalization with overlap
     ethr =  3.69E-07,  avg # of iterations =  1.7
 --- enter write_ns ---
 LDA+U parameters:
U( 1)     =  5.20000000
alpha( 1) =  0.00000000
U( 2)     =  5.20000000
alpha( 2) =  0.00000000
atom    1   Tr[ns(na)] (up, down, total) =   5.00131  1.64587  6.64719
   spin  1
    eigenvalues: 
  0.998  0.998  1.001  1.002  1.002
    eigenvectors:
  0.111  0.886  0.000  0.003  0.000
  0.001  0.001  0.333  0.088  0.577
  0.002  0.000  0.333  0.259  0.405
  0.886  0.111  0.000  0.000  0.003
  0.000  0.002  0.333  0.649  0.015
    occupations:
  0.998 -0.000 -0.000  0.000 -0.000
 -0.000  1.002 -0.000 -0.000  0.000
 -0.000 -0.000  1.002  0.000  0.000
  0.000 -0.000  0.000  0.998 -0.000
 -0.000  0.000  0.000 -0.000  1.002
   spin  2
    eigenvalues: 
  0.193  0.193  0.403  0.403  0.454
    eigenvectors:
  0.527  0.337  0.081  0.055  0.000
  0.079  0.012  0.016  0.560  0.333
  0.002  0.089  0.506  0.070  0.333
  0.337  0.527  0.055  0.081  0.000
  0.055  0.035  0.342  0.234  0.333
    occupations:
  0.221 -0.029 -0.029  0.000 -0.059
 -0.029  0.401  0.027 -0.051 -0.027
 -0.029  0.027  0.401  0.051 -0.027
  0.000 -0.051  0.051  0.221 -0.000
 -0.059 -0.027 -0.027 -0.000  0.401
atomic mag. moment =     3.355439
atom    2   Tr[ns(na)] (up, down, total) =   1.65092  5.00132  6.65223
   spin  1
    eigenvalues: 
  0.193  0.193  0.405  0.405  0.456
    eigenvectors:
  0.846  0.021  0.068  0.065  0.000
  0.035  0.054  0.035  0.542  0.333
  0.012  0.077  0.535  0.042  0.333
  0.021  0.846  0.065  0.068  0.000
  0.087  0.002  0.296  0.282  0.333
    occupations:
  0.221 -0.029 -0.029  0.000 -0.059
 -0.029  0.403  0.027 -0.051 -0.027
 -0.029  0.027  0.403  0.051 -0.027
  0.000 -0.051  0.051  0.221 -0.000
 -0.059 -0.027 -0.027 -0.000  0.403
   spin  2
    eigenvalues: 
  0.998  0.998  1.001  1.002  1.002
    eigenvectors:
  0.005  0.992  0.000  0.003  0.000
  0.001  0.001  0.333  0.072  0.592
  0.002  0.000  0.333  0.283  0.381
  0.992  0.005  0.000  0.000  0.003
  0.000  0.002  0.333  0.641  0.023
    occupations:
  0.998 -0.000 -0.000  0.000 -0.000
 -0.000  1.002 -0.000 -0.000  0.000
 -0.000 -0.000  1.002  0.000  0.000
  0.000 -0.000  0.000  0.998 -0.000
 -0.000  0.000  0.000 -0.000  1.002
atomic mag. moment =    -3.350399
N of occupied +U levels =   13.299419
 --- exit write_ns ---
 --- in v_hubbard ---
Hubbard energy    0.3976
 -------

     total cpu time spent up to now is       23.3 secs

     total energy              =    -734.99414017 Ry
     Harris-Foulkes estimate   =    -734.99398644 Ry
     estimated scf accuracy    <       0.00002804 Ry

     total magnetization       =     0.01 Bohr mag/cell
     absolute magnetization    =     7.37 Bohr mag/cell

     iteration # 17     ecut=    30.00 Ry     beta= 0.30
     Davidson diagonalization with overlap
     ethr =  6.37E-08,  avg # of iterations =  2.3
 --- enter write_ns ---
 LDA+U parameters:
U( 1)     =  5.20000000
alpha( 1) =  0.00000000
U( 2)     =  5.20000000
alpha( 2) =  0.00000000
atom    1   Tr[ns(na)] (up, down, total) =   5.00132  1.64722  6.64854
   spin  1
    eigenvalues: 
  0.998  0.998  1.002  1.002  1.002
    eigenvectors:
  0.003  0.993  0.000  0.003  0.000
  0.002  0.001  0.333  0.049  0.616
  0.002  0.000  0.333  0.324  0.341
  0.993  0.003  0.000  0.000  0.003
  0.000  0.002  0.333  0.624  0.040
    occupations:
  0.998 -0.000 -0.000  0.000 -0.000
 -0.000  1.002 -0.000 -0.000  0.000
 -0.000 -0.000  1.002  0.000  0.000
  0.000 -0.000  0.000  0.998 -0.000
 -0.000  0.000  0.000 -0.000  1.002
   spin  2
    eigenvalues: 
  0.193  0.193  0.411  0.411  0.438
    eigenvectors:
  0.593  0.279  0.070  0.058  0.000
  0.070  0.016  0.026  0.555  0.333
  0.001  0.085  0.527  0.054  0.333
  0.279  0.593  0.058  0.070  0.000
  0.058  0.027  0.318  0.263  0.333
    occupations:
  0.221 -0.030 -0.030  0.000 -0.060
 -0.030  0.401  0.018 -0.052 -0.018
 -0.030  0.018  0.401  0.052 -0.018
  0.000 -0.052  0.052  0.221 -0.000
 -0.060 -0.018 -0.018 -0.000  0.401
atomic mag. moment =     3.354095
atom    2   Tr[ns(na)] (up, down, total) =   1.65005  5.00130  6.65135
   spin  1
    eigenvalues: 
  0.193  0.193  0.407  0.407  0.449
    eigenvectors:
  0.650  0.221  0.078  0.051  0.000
  0.065  0.021  0.014  0.566  0.333
  0.000  0.086  0.506  0.074  0.333
  0.221  0.650  0.051  0.078  0.000
  0.064  0.022  0.350  0.230  0.333
    occupations:
  0.221 -0.029 -0.029  0.000 -0.059
 -0.029  0.403  0.023 -0.051 -0.023
 -0.029  0.023  0.403  0.051 -0.023
  0.000 -0.051  0.051  0.221 -0.000
 -0.059 -0.023 -0.023 -0.000  0.403
   spin  2
    eigenvalues: 
  0.998  0.998  1.001  1.002  1.002
    eigenvectors:
  0.202  0.794  0.000  0.003  0.000
  0.001  0.002  0.333  0.057  0.607
  0.002  0.000  0.333  0.308  0.356
  0.794  0.202  0.000  0.000  0.003
  0.000  0.002  0.333  0.631  0.033
    occupations:
  0.998 -0.000 -0.000  0.000 -0.000
 -0.000  1.002 -0.000 -0.000  0.000
 -0.000 -0.000  1.002  0.000  0.000
  0.000 -0.000  0.000  0.998 -0.000
 -0.000  0.000  0.000 -0.000  1.002
atomic mag. moment =    -3.351244
N of occupied +U levels =   13.299891
 --- exit write_ns ---
 --- in v_hubbard ---
Hubbard energy    0.3976
 -------

     total cpu time spent up to now is       24.5 secs

     total energy              =    -734.99418313 Ry
     Harris-Foulkes estimate   =    -734.99416641 Ry
     estimated scf accuracy    <       0.00003508 Ry

     total magnetization       =     0.00 Bohr mag/cell
     absolute magnetization    =     7.37 Bohr mag/cell

     iteration # 18     ecut=    30.00 Ry     beta= 0.30
     Davidson diagonalization with overlap
     ethr =  6.37E-08,  avg # of iterations =  1.0
 --- enter write_ns ---
 LDA+U parameters:
U( 1)     =  5.20000000
alpha( 1) =  0.00000000
U( 2)     =  5.20000000
alpha( 2) =  0.00000000
atom    1   Tr[ns(na)] (up, down, total) =   5.00132  1.64775  6.64907
   spin  1
    eigenvalues: 
  0.998  0.998  1.001  1.002  1.002
    eigenvectors:
  0.043  0.954  0.000  0.003  0.000
  0.001  0.001  0.333  0.091  0.573
  0.002  0.000  0.333  0.255  0.409
  0.954  0.043  0.000  0.000  0.003
  0.000  0.002  0.333  0.651  0.014
    occupations:
  0.998 -0.000 -0.000  0.000 -0.000
 -0.000  1.002 -0.000 -0.000  0.000
 -0.000 -0.000  1.002  0.000  0.000
  0.000 -0.000  0.000  0.998 -0.000
 -0.000  0.000  0.000 -0.000  1.002
   spin  2
    eigenvalues: 
  0.193  0.193  0.408  0.408  0.445
    eigenvectors:
  0.558  0.311  0.090  0.042  0.000
  0.074  0.014  0.003  0.576  0.333
  0.001  0.086  0.470  0.109  0.333
  0.311  0.558  0.042  0.090  0.000
  0.056  0.031  0.395  0.184  0.333
    occupations:
  0.221 -0.030 -0.030  0.000 -0.059
 -0.030  0.402  0.022 -0.051 -0.022
 -0.030  0.022  0.402  0.051 -0.022
  0.000 -0.051  0.051  0.221 -0.000
 -0.059 -0.022 -0.022 -0.000  0.402
atomic mag. moment =     3.353568
atom    2   Tr[ns(na)] (up, down, total) =   1.64892  5.00130  6.65022
   spin  1
    eigenvalues: 
  0.193  0.193  0.405  0.405  0.452
    eigenvectors:
  0.602  0.268  0.084  0.047  0.000
  0.070  0.017  0.008  0.571  0.333
  0.000  0.087  0.491  0.089  0.333
  0.268  0.602  0.047  0.084  0.000
  0.060  0.027  0.370  0.209  0.333
    occupations:
  0.221 -0.029 -0.029  0.000 -0.058
 -0.029  0.402  0.025 -0.051 -0.025
 -0.029  0.025  0.402  0.051 -0.025
  0.000 -0.051  0.051  0.221 -0.000
 -0.058 -0.025 -0.025 -0.000  0.402
   spin  2
    eigenvalues: 
  0.998  0.998  1.001  1.002  1.002
    eigenvectors:
  0.001  0.995  0.000  0.003  0.000
  0.002  0.001  0.333  0.037  0.627
  0.002  0.001  0.333  0.348  0.316
  0.995  0.001  0.000  0.000  0.003
  0.000  0.002  0.333  0.612  0.053
    occupations:
  0.998 -0.000 -0.000  0.000 -0.000
 -0.000  1.002 -0.000 -0.000  0.000
 -0.000 -0.000  1.002  0.000  0.000
  0.000 -0.000  0.000  0.998 -0.000
 -0.000  0.000  0.000 -0.000  1.002
atomic mag. moment =    -3.352372
N of occupied +U levels =   13.299289
 --- exit write_ns ---
 --- in v_hubbard ---
Hubbard energy    0.3977
 -------

     total cpu time spent up to now is       25.8 secs

     total energy              =    -734.99420996 Ry
     Harris-Foulkes estimate   =    -734.99418793 Ry
     estimated scf accuracy    <       0.00001090 Ry

     total magnetization       =     0.00 Bohr mag/cell
     absolute magnetization    =     7.37 Bohr mag/cell

     iteration # 19     ecut=    30.00 Ry     beta= 0.30
     Davidson diagonalization with overlap
     ethr =  2.48E-08,  avg # of iterations =  1.1
 --- enter write_ns ---
 LDA+U parameters:
U( 1)     =  5.20000000
alpha( 1) =  0.00000000
U( 2)     =  5.20000000
alpha( 2) =  0.00000000
atom    1   Tr[ns(na)] (up, down, total) =   5.00131  1.64881  6.65012
   spin  1
    eigenvalues: 
  0.998  0.998  1.001  1.002  1.002
    eigenvectors:
  0.009  0.988  0.000  0.003  0.000
  0.002  0.001  0.333  0.114  0.551
  0.002  0.000  0.333  0.225  0.440
  0.988  0.009  0.000  0.000  0.003
  0.000  0.002  0.333  0.658  0.006
    occupations:
  0.998 -0.000 -0.000  0.000 -0.000
 -0.000  1.002 -0.000 -0.000  0.000
 -0.000 -0.000  1.002  0.000  0.000
  0.000 -0.000  0.000  0.998 -0.000
 -0.000  0.000  0.000 -0.000  1.002
   spin  2
    eigenvalues: 
  0.193  0.193  0.407  0.407  0.449
    eigenvectors:
  0.604  0.264  0.075  0.056  0.000
  0.070  0.017  0.021  0.559  0.333
  0.000  0.087  0.517  0.062  0.333
  0.264  0.604  0.056  0.075  0.000
  0.061  0.027  0.331  0.248  0.333
    occupations:
  0.221 -0.029 -0.029  0.000 -0.059
 -0.029  0.402  0.023 -0.051 -0.023
 -0.029  0.023  0.402  0.051 -0.023
  0.000 -0.051  0.051  0.221 -0.000
 -0.059 -0.023 -0.023 -0.000  0.402
atomic mag. moment =     3.352501
atom    2   Tr[ns(na)] (up, down, total) =   1.64761  5.00130  6.64891
   spin  1
    eigenvalues: 
  0.193  0.193  0.408  0.408  0.445
    eigenvectors:
  0.674  0.198  0.082  0.046  0.000
  0.062  0.023  0.008  0.573  0.333
  0.000  0.086  0.491  0.090  0.333
  0.198  0.674  0.046  0.082  0.000
  0.066  0.019  0.373  0.208  0.333
    occupations:
  0.221 -0.029 -0.029  0.000 -0.059
 -0.029  0.402  0.022 -0.051 -0.022
 -0.029  0.022  0.402  0.051 -0.022
  0.000 -0.051  0.051  0.221 -0.000
 -0.059 -0.022 -0.022 -0.000  0.402
   spin  2
    eigenvalues: 
  0.998  0.998  1.001  1.002  1.002
    eigenvectors:
  0.002  0.994  0.000  0.003  0.000
  0.002  0.000  0.333  0.084  0.581
  0.002  0.001  0.333  0.266  0.399
  0.994  0.002  0.000  0.000  0.003
  0.000  0.002  0.333  0.647  0.017
    occupations:
  0.998 -0.000 -0.000  0.000 -0.000
 -0.000  1.002 -0.000 -0.000  0.000
 -0.000 -0.000  1.002  0.000  0.000
  0.000 -0.000  0.000  0.998 -0.000
 -0.000  0.000  0.000 -0.000  1.002
atomic mag. moment =    -3.353690
N of occupied +U levels =   13.299032
 --- exit write_ns ---
 --- in v_hubbard ---
Hubbard energy    0.3976
 -------

     total cpu time spent up to now is       27.1 secs

     total energy              =    -734.99423160 Ry
     Harris-Foulkes estimate   =    -734.99421399 Ry
     estimated scf accuracy    <       0.00000116 Ry

     total magnetization       =    -0.00 Bohr mag/cell
     absolute magnetization    =     7.37 Bohr mag/cell

     iteration # 20     ecut=    30.00 Ry     beta= 0.30
     Davidson diagonalization with overlap
     ethr =  2.65E-09,  avg # of iterations =  2.7
 --- enter write_ns ---
 LDA+U parameters:
U( 1)     =  5.20000000
alpha( 1) =  0.00000000
U( 2)     =  5.20000000
alpha( 2) =  0.00000000
atom    1   Tr[ns(na)] (up, down, total) =   5.00131  1.64831  6.64962
   spin  1
    eigenvalues: 
  0.998  0.998  1.001  1.002  1.002
    eigenvectors:
  0.082  0.914  0.000  0.003  0.000
  0.001  0.001  0.333  0.098  0.566
  0.002  0.000  0.333  0.245  0.419
  0.914  0.082  0.000  0.000  0.003
  0.000  0.002  0.333  0.653  0.011
    occupations:
  0.998 -0.000 -0.000  0.000 -0.000
 -0.000  1.002 -0.000 -0.000  0.000
 -0.000 -0.000  1.002  0.000  0.000
  0.000 -0.000  0.000  0.998 -0.000
 -0.000  0.000  0.000 -0.000  1.002
   spin  2
    eigenvalues: 
  0.193  0.193  0.407  0.407  0.448
    eigenvectors:
  0.603  0.265  0.064  0.069  0.000
  0.071  0.018  0.045  0.534  0.333
  0.000  0.088  0.545  0.033  0.333
  0.265  0.603  0.069  0.064  0.000
  0.061  0.027  0.278  0.300  0.333
    occupations:
  0.221 -0.030 -0.030  0.000 -0.059
 -0.030  0.402  0.023 -0.051 -0.023
 -0.030  0.023  0.402  0.051 -0.023
  0.000 -0.051  0.051  0.221 -0.000
 -0.059 -0.023 -0.023 -0.000  0.402
atomic mag. moment =     3.352993
atom    2   Tr[ns(na)] (up, down, total) =   1.64840  5.00130  6.64969
   spin  1
    eigenvalues: 
  0.193  0.193  0.408  0.408  0.446
    eigenvectors:
  0.604  0.266  0.083  0.047  0.000
  0.069  0.017  0.009  0.571  0.333
  0.000  0.086  0.492  0.088  0.333
  0.266  0.604  0.047  0.083  0.000
  0.060  0.026  0.369  0.211  0.333
    occupations:
  0.221 -0.029 -0.029  0.000 -0.059
 -0.029  0.402  0.022 -0.051 -0.022
 -0.029  0.022  0.402  0.051 -0.022
  0.000 -0.051  0.051  0.221 -0.000
 -0.059 -0.022 -0.022 -0.000  0.402
   spin  2
    eigenvalues: 
  0.998  0.998  1.001  1.002  1.002
    eigenvectors:
  0.208  0.789  0.000  0.003  0.000
  0.001  0.002  0.333  0.104  0.561
  0.002  0.000  0.333  0.238  0.427
  0.789  0.208  0.000  0.000  0.003
  0.000  0.002  0.333  0.655  0.009
    occupations:
  0.998 -0.000 -0.000  0.000 -0.000
 -0.000  1.002 -0.000 -0.000  0.000
 -0.000 -0.000  1.002  0.000  0.000
  0.000 -0.000  0.000  0.998 -0.000
 -0.000  0.000  0.000 -0.000  1.002
atomic mag. moment =    -3.352903
N of occupied +U levels =   13.299315
 --- exit write_ns ---
 --- in v_hubbard ---
Hubbard energy    0.3977
 -------

     total cpu time spent up to now is       28.3 secs

     total energy              =    -734.99423764 Ry
     Harris-Foulkes estimate   =    -734.99423209 Ry
     estimated scf accuracy    <       0.00000019 Ry

     total magnetization       =     0.00 Bohr mag/cell
     absolute magnetization    =     7.37 Bohr mag/cell

     iteration # 21     ecut=    30.00 Ry     beta= 0.30
     Davidson diagonalization with overlap
     ethr =  4.29E-10,  avg # of iterations =  3.1
 --- enter write_ns ---
 LDA+U parameters:
U( 1)     =  5.20000000
alpha( 1) =  0.00000000
U( 2)     =  5.20000000
alpha( 2) =  0.00000000
atom    1   Tr[ns(na)] (up, down, total) =   5.00131  1.64836  6.64967
   spin  1
    eigenvalues: 
  0.998  0.998  1.001  1.002  1.002
    eigenvectors:
  0.020  0.977  0.000  0.003  0.000
  0.001  0.001  0.333  0.114  0.550
  0.002  0.000  0.333  0.224  0.441
  0.977  0.020  0.000  0.000  0.003
  0.000  0.002  0.333  0.658  0.006
    occupations:
  0.998 -0.000 -0.000  0.000 -0.000
 -0.000  1.002 -0.000 -0.000  0.000
 -0.000 -0.000  1.002  0.000  0.000
  0.000 -0.000  0.000  0.998 -0.000
 -0.000  0.000  0.000 -0.000  1.002
   spin  2
    eigenvalues: 
  0.193  0.193  0.406  0.406  0.449
    eigenvectors:
  0.587  0.281  0.086  0.046  0.000
  0.072  0.016  0.007  0.572  0.333
  0.001  0.087  0.484  0.095  0.333
  0.281  0.587  0.046  0.086  0.000
  0.059  0.028  0.378  0.201  0.333
    occupations:
  0.221 -0.029 -0.029  0.000 -0.059
 -0.029  0.402  0.024 -0.051 -0.024
 -0.029  0.024  0.402  0.051 -0.024
  0.000 -0.051  0.051  0.221 -0.000
 -0.059 -0.024 -0.024 -0.000  0.402
atomic mag. moment =     3.352949
atom    2   Tr[ns(na)] (up, down, total) =   1.64812  5.00130  6.64942
   spin  1
    eigenvalues: 
  0.193  0.193  0.407  0.407  0.447
    eigenvectors:
  0.573  0.297  0.075  0.054  0.000
  0.072  0.015  0.019  0.562  0.333
  0.001  0.085  0.515  0.066  0.333
  0.297  0.573  0.054  0.075  0.000
  0.057  0.029  0.337  0.243  0.333
    occupations:
  0.221 -0.029 -0.029  0.000 -0.059
 -0.029  0.402  0.022 -0.051 -0.022
 -0.029  0.022  0.402  0.051 -0.022
  0.000 -0.051  0.051  0.221 -0.000
 -0.059 -0.022 -0.022 -0.000  0.402
   spin  2
    eigenvalues: 
  0.998  0.998  1.001  1.002  1.002
    eigenvectors:
  0.002  0.995  0.000  0.003  0.000
  0.002  0.001  0.333  0.103  0.562
  0.002  0.000  0.333  0.239  0.425
  0.995  0.002  0.000  0.000  0.003
  0.000  0.002  0.333  0.655  0.009
    occupations:
  0.998 -0.000 -0.000  0.000 -0.000
 -0.000  1.002 -0.000 -0.000  0.000
 -0.000 -0.000  1.002  0.000  0.000
  0.000 -0.000  0.000  0.998 -0.000
 -0.000  0.000  0.000 -0.000  1.002
atomic mag. moment =    -3.353180
N of occupied +U levels =   13.299095
 --- exit write_ns ---
 --- in v_hubbard ---
Hubbard energy    0.3977
 -------

     total cpu time spent up to now is       29.7 secs

     total energy              =    -734.99424247 Ry
     Harris-Foulkes estimate   =    -734.99423821 Ry
     estimated scf accuracy    <       0.00000227 Ry

     total magnetization       =     0.00 Bohr mag/cell
     absolute magnetization    =     7.37 Bohr mag/cell

     iteration # 22     ecut=    30.00 Ry     beta= 0.30
     Davidson diagonalization with overlap
     ethr =  4.29E-10,  avg # of iterations =  2.0
 --- enter write_ns ---
 LDA+U parameters:
U( 1)     =  5.20000000
alpha( 1) =  0.00000000
U( 2)     =  5.20000000
alpha( 2) =  0.00000000
atom    1   Tr[ns(na)] (up, down, total) =   5.00131  1.64842  6.64972
   spin  1
    eigenvalues: 
  0.998  0.998  1.001  1.002  1.002
    eigenvectors:
  0.047  0.949  0.000  0.003  0.000
  0.001  0.001  0.333  0.040  0.625
  0.002  0.000  0.333  0.342  0.323
  0.949  0.047  0.000  0.000  0.003
  0.000  0.002  0.333  0.615  0.049
    occupations:
  0.998 -0.000 -0.000  0.000 -0.000
 -0.000  1.002 -0.000 -0.000  0.000
 -0.000 -0.000  1.002  0.000  0.000
  0.000 -0.000  0.000  0.998 -0.000
 -0.000  0.000  0.000 -0.000  1.002
   spin  2
    eigenvalues: 
  0.193  0.193  0.406  0.406  0.450
    eigenvectors:
  0.613  0.255  0.084  0.048  0.000
  0.069  0.018  0.009  0.570  0.333
  0.000  0.088  0.491  0.088  0.333
  0.255  0.613  0.048  0.084  0.000
  0.062  0.026  0.369  0.210  0.333
    occupations:
  0.221 -0.029 -0.029  0.000 -0.059
 -0.029  0.402  0.024 -0.051 -0.024
 -0.029  0.024  0.402  0.051 -0.024
  0.000 -0.051  0.051  0.221 -0.000
 -0.059 -0.024 -0.024 -0.000  0.402
atomic mag. moment =     3.352893
atom    2   Tr[ns(na)] (up, down, total) =   1.64809  5.00130  6.64940
   spin  1
    eigenvalues: 
  0.193  0.193  0.408  0.408  0.447
    eigenvectors:
  0.778  0.092  0.089  0.041  0.000
  0.049  0.037  0.003  0.577  0.333
  0.003  0.083  0.469  0.111  0.333
  0.092  0.778  0.041  0.089  0.000
  0.077  0.009  0.398  0.182  0.333
    occupations:
  0.221 -0.029 -0.029  0.000 -0.059
 -0.029  0.402  0.022 -0.051 -0.022
 -0.029  0.022  0.402  0.051 -0.022
  0.000 -0.051  0.051  0.221 -0.000
 -0.059 -0.022 -0.022 -0.000  0.402
   spin  2
    eigenvalues: 
  0.998  0.998  1.001  1.002  1.002
    eigenvectors:
  0.011  0.986  0.000  0.003  0.000
  0.001  0.001  0.333  0.098  0.566
  0.002  0.000  0.333  0.245  0.419
  0.986  0.011  0.000  0.000  0.003
  0.000  0.002  0.333  0.653  0.011
    occupations:
  0.998 -0.000 -0.000  0.000 -0.000
 -0.000  1.002 -0.000 -0.000  0.000
 -0.000 -0.000  1.002  0.000  0.000
  0.000 -0.000  0.000  0.998 -0.000
 -0.000  0.000  0.000 -0.000  1.002
atomic mag. moment =    -3.353208
N of occupied +U levels =   13.299120
 --- exit write_ns ---
 --- in v_hubbard ---
Hubbard energy    0.3976
 -------

     total cpu time spent up to now is       30.9 secs

     total energy              =    -734.99424481 Ry
     Harris-Foulkes estimate   =    -734.99424250 Ry
     estimated scf accuracy    <       0.00000311 Ry

     total magnetization       =    -0.00 Bohr mag/cell
     absolute magnetization    =     7.37 Bohr mag/cell

     iteration # 23     ecut=    30.00 Ry     beta= 0.30
     Davidson diagonalization with overlap
     ethr =  4.29E-10,  avg # of iterations =  2.5
 --- enter write_ns ---
 LDA+U parameters:
U( 1)     =  5.20000000
alpha( 1) =  0.00000000
U( 2)     =  5.20000000
alpha( 2) =  0.00000000
atom    1   Tr[ns(na)] (up, down, total) =   5.00131  1.64856  6.64986
   spin  1
    eigenvalues: 
  0.998  0.998  1.001  1.002  1.002
    eigenvectors:
  0.107  0.889  0.000  0.003  0.000
  0.001  0.001  0.333  0.107  0.557
  0.002  0.000  0.333  0.233  0.432
  0.889  0.107  0.000  0.000  0.003
  0.000  0.002  0.333  0.656  0.008
    occupations:
  0.998 -0.000 -0.000  0.000 -0.000
 -0.000  1.002 -0.000 -0.000  0.000
 -0.000 -0.000  1.002  0.000  0.000
  0.000 -0.000  0.000  0.998 -0.000
 -0.000  0.000  0.000 -0.000  1.002
   spin  2
    eigenvalues: 
  0.193  0.193  0.405  0.405  0.453
    eigenvectors:
[...]
U( 1)     =  5.20000000
alpha( 1) =  0.00000000
U( 2)     =  5.20000000
alpha( 2) =  0.00000000
atom    1   Tr[ns(na)] (up, down, total) =   5.00131  1.64831  6.64961
   spin  1
    eigenvalues: 
  0.998  0.998  1.001  1.002  1.002
    eigenvectors:
  0.060  0.936  0.000  0.003  0.000
  0.001  0.001  0.333  0.075  0.590
  0.002  0.000  0.333  0.279  0.385
  0.936  0.060  0.000  0.000  0.003
  0.000  0.002  0.333  0.643  0.022
    occupations:
  0.998 -0.000 -0.000  0.000 -0.000
 -0.000  1.002 -0.000 -0.000  0.000
 -0.000 -0.000  1.002  0.000  0.000
  0.000 -0.000  0.000  0.998 -0.000
 -0.000  0.000  0.000 -0.000  1.002
   spin  2
    eigenvalues: 
  0.193  0.193  0.408  0.408  0.446
    eigenvectors:
  0.674  0.196  0.088  0.042  0.000
  0.062  0.024  0.004  0.577  0.333
  0.000  0.086  0.474  0.107  0.333
  0.196  0.674  0.042  0.088  0.000
  0.067  0.019  0.393  0.187  0.333
    occupations:
  0.221 -0.029 -0.029  0.000 -0.059
 -0.029  0.402  0.022 -0.051 -0.022
 -0.029  0.022  0.402  0.051 -0.022
  0.000 -0.051  0.051  0.221 -0.000
 -0.059 -0.022 -0.022 -0.000  0.402
atomic mag. moment =     3.352997
atom    2   Tr[ns(na)] (up, down, total) =   1.64831  5.00131  6.64962
   spin  1
    eigenvalues: 
  0.193  0.193  0.408  0.408  0.446
    eigenvectors:
  0.628  0.243  0.094  0.036  0.000
  0.067  0.019  0.000  0.580  0.333
  0.000  0.086  0.449  0.131  0.333
  0.243  0.628  0.036  0.094  0.000
  0.062  0.024  0.421  0.160  0.333
    occupations:
  0.221 -0.029 -0.029  0.000 -0.059
 -0.029  0.402  0.022 -0.051 -0.022
 -0.029  0.022  0.402  0.051 -0.022
  0.000 -0.051  0.051  0.221 -0.000
 -0.059 -0.022 -0.022 -0.000  0.402
   spin  2
    eigenvalues: 
  0.998  0.998  1.001  1.002  1.002
    eigenvectors:
  0.142  0.854  0.000  0.003  0.000
  0.001  0.001  0.333  0.105  0.560
  0.002  0.000  0.333  0.236  0.428
  0.854  0.142  0.000  0.000  0.003
  0.000  0.002  0.333  0.656  0.009
    occupations:
  0.998 -0.000 -0.000  0.000 -0.000
 -0.000  1.002 -0.000 -0.000  0.000
 -0.000 -0.000  1.002  0.000  0.000
  0.000 -0.000  0.000  0.998 -0.000
 -0.000  0.000  0.000 -0.000  1.002
atomic mag. moment =    -3.352993
N of occupied +U levels =   13.299230
 --- exit write_ns ---
 --- in v_hubbard ---
Hubbard energy    0.3977
 -------

     total cpu time spent up to now is       85.3 secs

     total energy              =    -734.99424341 Ry
     Harris-Foulkes estimate   =    -734.99424340 Ry
     estimated scf accuracy    <          2.0E-09 Ry

     total magnetization       =     0.00 Bohr mag/cell
     absolute magnetization    =     7.37 Bohr mag/cell

     iteration # 65     ecut=    30.00 Ry     beta= 0.30
     Davidson diagonalization with overlap
     ethr =  3.64E-12,  avg # of iterations =  1.8
 --- enter write_ns ---
 LDA+U parameters:
U( 1)     =  5.20000000
alpha( 1) =  0.00000000
U( 2)     =  5.20000000
alpha( 2) =  0.00000000
atom    1   Tr[ns(na)] (up, down, total) =   5.00131  1.64831  6.64961
   spin  1
    eigenvalues: 
  0.998  0.998  1.001  1.002  1.002
    eigenvectors:
  0.004  0.993  0.000  0.003  0.000
  0.002  0.001  0.333  0.099  0.566
  0.002  0.000  0.333  0.244  0.420
  0.993  0.004  0.000  0.000  0.003
  0.000  0.002  0.333  0.654  0.011
    occupations:
  0.998 -0.000 -0.000  0.000 -0.000
 -0.000  1.002 -0.000 -0.000  0.000
 -0.000 -0.000  1.002  0.000  0.000
  0.000 -0.000  0.000  0.998 -0.000
 -0.000  0.000  0.000 -0.000  1.002
   spin  2
    eigenvalues: 
  0.193  0.193  0.408  0.408  0.446
    eigenvectors:
  0.743  0.128  0.076  0.053  0.000
  0.054  0.032  0.017  0.563  0.333
  0.001  0.085  0.512  0.069  0.333
  0.128  0.743  0.053  0.076  0.000
  0.074  0.013  0.342  0.239  0.333
    occupations:
  0.221 -0.029 -0.029  0.000 -0.059
 -0.029  0.402  0.022 -0.051 -0.022
 -0.029  0.022  0.402  0.051 -0.022
  0.000 -0.051  0.051  0.221 -0.000
 -0.059 -0.022 -0.022 -0.000  0.402
atomic mag. moment =     3.352996
atom    2   Tr[ns(na)] (up, down, total) =   1.64831  5.00131  6.64962
   spin  1
    eigenvalues: 
  0.193  0.193  0.408  0.408  0.446
    eigenvectors:
  0.638  0.233  0.087  0.043  0.000
  0.066  0.020  0.005  0.576  0.333
  0.000  0.086  0.477  0.103  0.333
  0.233  0.638  0.043  0.087  0.000
  0.063  0.023  0.389  0.192  0.333
    occupations:
  0.221 -0.029 -0.029  0.000 -0.059
 -0.029  0.402  0.022 -0.051 -0.022
 -0.029  0.022  0.402  0.051 -0.022
  0.000 -0.051  0.051  0.221 -0.000
 -0.059 -0.022 -0.022 -0.000  0.402
   spin  2
    eigenvalues: 
  0.998  0.998  1.001  1.002  1.002
    eigenvectors:
  0.020  0.977  0.000  0.003  0.000
  0.001  0.001  0.333  0.041  0.624
  0.002  0.000  0.333  0.340  0.325
  0.977  0.020  0.000  0.000  0.003
  0.000  0.002  0.333  0.616  0.048
    occupations:
  0.998 -0.000 -0.000  0.000 -0.000
 -0.000  1.002 -0.000 -0.000  0.000
 -0.000 -0.000  1.002  0.000  0.000
  0.000 -0.000  0.000  0.998 -0.000
 -0.000  0.000  0.000 -0.000  1.002
atomic mag. moment =    -3.352993
N of occupied +U levels =   13.299231
 --- exit write_ns ---
 --- in v_hubbard ---
Hubbard energy    0.3977
 -------

     total cpu time spent up to now is       86.5 secs

     total energy              =    -734.99424341 Ry
     Harris-Foulkes estimate   =    -734.99424341 Ry
     estimated scf accuracy    <          1.8E-09 Ry

     total magnetization       =     0.00 Bohr mag/cell
     absolute magnetization    =     7.37 Bohr mag/cell

     iteration # 66     ecut=    30.00 Ry     beta= 0.30
     Davidson diagonalization with overlap
     ethr =  3.64E-12,  avg # of iterations =  2.3
 --- enter write_ns ---
 LDA+U parameters:
U( 1)     =  5.20000000
alpha( 1) =  0.00000000
U( 2)     =  5.20000000
alpha( 2) =  0.00000000
atom    1   Tr[ns(na)] (up, down, total) =   5.00131  1.64831  6.64961
   spin  1
    eigenvalues: 
  0.998  0.998  1.001  1.002  1.002
    eigenvectors:
  0.105  0.891  0.000  0.003  0.000
  0.001  0.001  0.333  0.095  0.569
  0.002  0.000  0.333  0.249  0.415
  0.891  0.105  0.000  0.000  0.003
  0.000  0.002  0.333  0.652  0.012
    occupations:
  0.998 -0.000 -0.000  0.000 -0.000
 -0.000  1.002 -0.000 -0.000  0.000
 -0.000 -0.000  1.002  0.000  0.000
  0.000 -0.000  0.000  0.998 -0.000
 -0.000  0.000  0.000 -0.000  1.002
   spin  2
    eigenvalues: 
  0.193  0.193  0.408  0.408  0.446
    eigenvectors:
  0.592  0.278  0.071  0.058  0.000
  0.070  0.016  0.025  0.555  0.333
  0.001  0.086  0.525  0.055  0.333
  0.278  0.592  0.058  0.071  0.000
  0.059  0.028  0.320  0.260  0.333
    occupations:
  0.221 -0.029 -0.029  0.000 -0.059
 -0.029  0.402  0.022 -0.051 -0.022
 -0.029  0.022  0.402  0.051 -0.022
  0.000 -0.051  0.051  0.221 -0.000
 -0.059 -0.022 -0.022 -0.000  0.402
atomic mag. moment =     3.352995
atom    2   Tr[ns(na)] (up, down, total) =   1.64831  5.00131  6.64961
   spin  1
    eigenvalues: 
  0.193  0.193  0.408  0.408  0.446
    eigenvectors:
  0.465  0.406  0.080  0.049  0.000
  0.079  0.007  0.012  0.569  0.333
  0.004  0.082  0.500  0.080  0.333
  0.406  0.465  0.049  0.080  0.000
  0.046  0.040  0.359  0.221  0.333
    occupations:
  0.221 -0.029 -0.029  0.000 -0.059
 -0.029  0.402  0.022 -0.051 -0.022
 -0.029  0.022  0.402  0.051 -0.022
  0.000 -0.051  0.051  0.221 -0.000
 -0.059 -0.022 -0.022 -0.000  0.402
   spin  2
    eigenvalues: 
  0.998  0.998  1.001  1.002  1.002
    eigenvectors:
  0.084  0.912  0.000  0.003  0.000
  0.001  0.001  0.333  0.115  0.549
  0.002  0.000  0.333  0.223  0.441
  0.912  0.084  0.000  0.000  0.003
  0.000  0.002  0.333  0.658  0.006
    occupations:
  0.998 -0.000 -0.000  0.000 -0.000
 -0.000  1.002 -0.000 -0.000  0.000
 -0.000 -0.000  1.002  0.000  0.000
  0.000 -0.000  0.000  0.998 -0.000
 -0.000  0.000  0.000 -0.000  1.002
atomic mag. moment =    -3.352998
N of occupied +U levels =   13.299227
 --- exit write_ns ---
 --- in v_hubbard ---
Hubbard energy    0.3977
 -------
 
     Magnetic moment per site:
     atom:    1    charge:   13.5896    magn:    3.4327    constr:    0.0000
     atom:    2    charge:   13.5896    magn:   -3.4328    constr:    0.0000
     atom:    3    charge:    5.8505    magn:   -0.0000    constr:    0.0000
     atom:    4    charge:    5.8505    magn:   -0.0000    constr:    0.0000

     total cpu time spent up to now is       87.8 secs

     End of self-consistent calculation

 ------ SPIN UP ------------


          k = 0.0000 0.0000 0.0000 (   731 PWs)   bands (ev):

   -76.4165 -72.2958 -42.1743 -42.1743 -41.7717 -38.1050 -38.1050 -37.9487
    -6.1336  -4.9055   4.8029   5.9142   5.9142   7.5162   7.5162   8.7432
    10.9549  10.9755  10.9755  11.1232  11.1232  13.7524  13.7524  13.8502
    14.7081  16.4858

     occupation numbers 
     1.0000   1.0000   1.0000   1.0000   1.0000   1.0000   1.0000   1.0000
     1.0000   1.0000   1.0000   1.0000   1.0000   1.0000   1.0000   1.0000
     1.0000   1.0000   1.0000   1.0000   1.0000   0.7299   0.7299   0.4627
     0.0000   0.0000

          k = 0.5000-0.1667-0.1667 (   758 PWs)   bands (ev):

   -76.4238 -72.3000 -42.2572 -42.2039 -41.7915 -38.1946 -38.1368 -37.9757
    -5.4583  -4.9525   5.5021   6.0556   6.3034   6.9343   7.5358   8.4439
     8.5229   9.8218   9.9506  11.1310  11.6129  13.3656  14.2991  14.3292
    16.1813  16.4021

     occupation numbers 
     1.0000   1.0000   1.0000   1.0000   1.0000   1.0000   1.0000   1.0000
     1.0000   1.0000   1.0000   1.0000   1.0000   1.0000   1.0000   1.0000
     1.0000   1.0000   1.0000   1.0000   1.0000   1.0532   0.0030   0.0018
     0.0000   0.0000

          k = 0.3333 0.3333-0.3333 (   753 PWs)   bands (ev):

   -76.4198 -72.2994 -42.2623 -42.1928 -41.7671 -38.1967 -38.1260 -37.9498
    -5.2592  -5.1630   5.4574   6.2792   6.3153   6.6181   7.5234   8.1392
     9.2273   9.3328   9.9566  11.5776  11.6281  13.3713  14.2588  14.3587
    16.4293  16.5432

     occupation numbers 
     1.0000   1.0000   1.0000   1.0000   1.0000   1.0000   1.0000   1.0000
     1.0000   1.0000   1.0000   1.0000   1.0000   1.0000   1.0000   1.0000
     1.0000   1.0000   1.0000   1.0000   1.0000   1.0552   0.0058   0.0010
     0.0000   0.0000

          k =-0.6667 0.6667 0.0000 (   767 PWs)   bands (ev):

   -76.4239 -72.3045 -42.2771 -42.2699 -41.7754 -38.2061 -38.1986 -37.9596
    -5.0153  -5.0153   5.7582   6.1437   6.4149   6.5735   6.7763   8.4059
     8.7873   9.4310   9.7476  10.9723  11.3777  14.0197  14.1799  14.2624
    16.3831  16.5108

     occupation numbers 
     1.0000   1.0000   1.0000   1.0000   1.0000   1.0000   1.0000   1.0000
     1.0000   1.0000   1.0000   1.0000   1.0000   1.0000   1.0000   1.0000
     1.0000   1.0000   1.0000   1.0000   1.0000   0.1249   0.0188   0.0055
     0.0000   0.0000

          k = 0.1667 0.1667 0.1667 (   739 PWs)   bands (ev):

   -76.4206 -72.2964 -42.1774 -42.1774 -41.7808 -38.1102 -38.1102 -37.9647
    -5.8659  -5.2545   5.5240   5.9717   5.9717   7.5368   7.5368   8.3330
     9.8619  10.1952  10.1952  11.9403  11.9403  13.6966  13.7191  13.7191
    16.3491  16.3777

     occupation numbers 
     1.0000   1.0000   1.0000   1.0000   1.0000   1.0000   1.0000   1.0000
     1.0000   1.0000   1.0000   1.0000   1.0000   1.0000   1.0000   1.0000
     1.0000   1.0000   1.0000   1.0000   1.0000   0.8671   0.8147   0.8147
     0.0000   0.0000

          k =-0.8333 0.5000 0.5000 (   762 PWs)   bands (ev):

   -76.4235 -72.3023 -42.2714 -42.2053 -41.7882 -38.2050 -38.1375 -37.9694
    -5.4207  -4.9924   5.2164   6.1814   6.2915   6.9839   7.5498   8.1571
     8.9695  10.1402  10.2039  10.8730  11.2323  13.4341  14.3350  14.3435
    16.0298  16.5596

     occupation numbers 
     1.0000   1.0000   1.0000   1.0000   1.0000   1.0000   1.0000   1.0000
     1.0000   1.0000   1.0000   1.0000   1.0000   1.0000   1.0000   1.0000
     1.0000   1.0000   1.0000   1.0000   1.0000   1.0752   0.0016   0.0014
     0.0000   0.0000

 ------ SPIN DOWN ----------


          k = 0.0000 0.0000 0.0000 (   731 PWs)   bands (ev):

   -76.4166 -72.2958 -42.1743 -42.1743 -41.7717 -38.1050 -38.1050 -37.9487
    -6.1336  -4.9055   4.8029   5.9142   5.9142   7.5162   7.5162   8.7432
    10.9549  10.9755  10.9755  11.1231  11.1231  13.7524  13.7524  13.8502
    14.7081  16.4858

     occupation numbers 
     1.0000   1.0000   1.0000   1.0000   1.0000   1.0000   1.0000   1.0000
     1.0000   1.0000   1.0000   1.0000   1.0000   1.0000   1.0000   1.0000
     1.0000   1.0000   1.0000   1.0000   1.0000   0.7298   0.7298   0.4628
     0.0000   0.0000

          k = 0.5000-0.1667-0.1667 (   758 PWs)   bands (ev):

   -76.4238 -72.3000 -42.2572 -42.2040 -41.7915 -38.1946 -38.1368 -37.9757
    -5.4583  -4.9525   5.5021   6.0556   6.3034   6.9343   7.5358   8.4439
     8.5229   9.8218   9.9506  11.1310  11.6129  13.3656  14.2991  14.3292
    16.1813  16.4021

     occupation numbers 
     1.0000   1.0000   1.0000   1.0000   1.0000   1.0000   1.0000   1.0000
     1.0000   1.0000   1.0000   1.0000   1.0000   1.0000   1.0000   1.0000
     1.0000   1.0000   1.0000   1.0000   1.0000   1.0532   0.0030   0.0018
     0.0000   0.0000

          k = 0.3333 0.3333-0.3333 (   753 PWs)   bands (ev):

   -76.4198 -72.2994 -42.2623 -42.1928 -41.7671 -38.1967 -38.1260 -37.9498
    -5.2592  -5.1630   5.4574   6.2792   6.3153   6.6181   7.5234   8.1392
     9.2273   9.3328   9.9566  11.5776  11.6281  13.3713  14.2588  14.3587
    16.4293  16.5432

     occupation numbers 
     1.0000   1.0000   1.0000   1.0000   1.0000   1.0000   1.0000   1.0000
     1.0000   1.0000   1.0000   1.0000   1.0000   1.0000   1.0000   1.0000
     1.0000   1.0000   1.0000   1.0000   1.0000   1.0552   0.0058   0.0010
     0.0000   0.0000

          k =-0.6667 0.6667 0.0000 (   767 PWs)   bands (ev):

   -76.4239 -72.3045 -42.2771 -42.2699 -41.7754 -38.2061 -38.1986 -37.9596
    -5.0153  -5.0153   5.7582   6.1437   6.4149   6.5735   6.7763   8.4059
     8.7872   9.4310   9.7476  10.9723  11.3777  14.0197  14.1799  14.2625
    16.3831  16.5108

     occupation numbers 
     1.0000   1.0000   1.0000   1.0000   1.0000   1.0000   1.0000   1.0000
     1.0000   1.0000   1.0000   1.0000   1.0000   1.0000   1.0000   1.0000
     1.0000   1.0000   1.0000   1.0000   1.0000   0.1249   0.0188   0.0055
     0.0000   0.0000

          k = 0.1667 0.1667 0.1667 (   739 PWs)   bands (ev):

   -76.4206 -72.2964 -42.1774 -42.1774 -41.7808 -38.1102 -38.1102 -37.9647
    -5.8659  -5.2545   5.5240   5.9717   5.9717   7.5368   7.5368   8.3330
     9.8619  10.1952  10.1952  11.9403  11.9403  13.6966  13.7191  13.7191
    16.3491  16.3777

     occupation numbers 
     1.0000   1.0000   1.0000   1.0000   1.0000   1.0000   1.0000   1.0000
     1.0000   1.0000   1.0000   1.0000   1.0000   1.0000   1.0000   1.0000
     1.0000   1.0000   1.0000   1.0000   1.0000   0.8672   0.8147   0.8147
     0.0000   0.0000

          k =-0.8333 0.5000 0.5000 (   762 PWs)   bands (ev):

   -76.4235 -72.3023 -42.2714 -42.2053 -41.7882 -38.2050 -38.1375 -37.9694
    -5.4207  -4.9924   5.2163   6.1814   6.2915   6.9839   7.5498   8.1571
     8.9695  10.1402  10.2039  10.8730  11.2323  13.4341  14.3350  14.3435
    16.0298  16.5596

     occupation numbers 
     1.0000   1.0000   1.0000   1.0000   1.0000   1.0000   1.0000   1.0000
     1.0000   1.0000   1.0000   1.0000   1.0000   1.0000   1.0000   1.0000
     1.0000   1.0000   1.0000   1.0000   1.0000   1.0752   0.0016   0.0014
     0.0000   0.0000

     the Fermi energy is    13.8742 ev

!    total energy              =    -734.99424342 Ry
     Harris-Foulkes estimate   =    -734.99424342 Ry
     estimated scf accuracy    <          7.6E-10 Ry

     total all-electron energy =     -5385.370265 Ry

     The total energy is the sum of the following terms:

     one-electron contribution =    -266.06910919 Ry
     hartree contribution      =     158.55371470 Ry
     xc contribution           =     -83.62511608 Ry
     ewald contribution        =    -378.02403899 Ry
     Hubbard energy            =       0.39772651 Ry
     one-center paw contrib.   =    -166.22860265 Ry
      -> PAW hartree energy AE =     411.30482466 Ry
      -> PAW hartree energy PS =    -409.72616550 Ry
      -> PAW xc energy AE      =    -217.50588754 Ry
      -> PAW xc energy PS      =      67.92505620 Ry
      -> total E_H with PAW    =     160.13237386 Ry
      -> total E_XC with PAW   =    -233.20594742 Ry
     smearing contrib. (-TS)   =       0.00118228 Ry

     total magnetization       =    -0.00 Bohr mag/cell
     absolute magnetization    =     7.37 Bohr mag/cell

     convergence has been achieved in  66 iterations

     Writing output data file FeO.save/
 
     init_run     :      1.43s CPU      1.49s WALL (       1 calls)
     electrons    :     84.54s CPU     84.93s WALL (       1 calls)

     Called by init_run:
     wfcinit      :      0.26s CPU      0.27s WALL (       1 calls)
     wfcinit:atom :      0.00s CPU      0.00s WALL (      12 calls)
     wfcinit:wfcr :      0.24s CPU      0.25s WALL (      12 calls)
     potinit      :      0.66s CPU      0.69s WALL (       1 calls)
     hinit0       :      0.44s CPU      0.44s WALL (       1 calls)

     Called by electrons:
     c_bands      :     28.46s CPU     28.78s WALL (      66 calls)
     sum_band     :     10.84s CPU     10.90s WALL (      66 calls)
     v_of_rho     :      4.29s CPU      4.33s WALL (      67 calls)
     v_h          :      0.05s CPU      0.08s WALL (      67 calls)
     v_xc         :      4.24s CPU      4.25s WALL (      67 calls)
     newd         :      1.95s CPU      1.97s WALL (      67 calls)
     PAW_pot      :     38.98s CPU     38.99s WALL (      67 calls)
     mix_rho      :      0.38s CPU      0.37s WALL (      66 calls)

     Called by c_bands:
     init_us_2    :      0.24s CPU      0.31s WALL (    1608 calls)
     cegterg      :     27.41s CPU     27.73s WALL (     792 calls)

     Called by sum_band:
     sum_band:bec :      0.02s CPU      0.01s WALL (     792 calls)
     addusdens    :      4.30s CPU      4.31s WALL (      66 calls)

     Called by *egterg:
     h_psi        :     24.76s CPU     25.07s WALL (    2374 calls)
     s_psi        :      0.21s CPU      0.21s WALL (    2386 calls)
     g_psi        :      0.06s CPU      0.06s WALL (    1570 calls)
     cdiaghg      :      1.84s CPU      1.82s WALL (    2362 calls)
     cegterg:over :      0.24s CPU      0.29s WALL (    1570 calls)
     cegterg:upda :      0.20s CPU      0.17s WALL (    1570 calls)
     cegterg:last :      0.11s CPU      0.10s WALL (     792 calls)

     Called by h_psi:
     h_psi:pot    :     24.59s CPU     24.90s WALL (    2374 calls)
     h_psi:calbec :      0.22s CPU      0.24s WALL (    2374 calls)
     vloc_psi     :     24.16s CPU     24.44s WALL (    2374 calls)
     add_vuspsi   :      0.20s CPU      0.22s WALL (    2374 calls)
     vhpsi        :      0.14s CPU      0.14s WALL (    2374 calls)

     General routines
     calbec       :      0.41s CPU      0.43s WALL (    6344 calls)
     fft          :      1.49s CPU      1.52s WALL (    1669 calls)
     ffts         :      0.10s CPU      0.10s WALL (     266 calls)
     fftw         :     27.47s CPU     27.64s WALL (  109690 calls)
     interpolate  :      0.19s CPU      0.19s WALL (     134 calls)
     davcio       :      0.00s CPU      0.00s WALL (      12 calls)
 
     Parallel routines
     fft_scatt_xy :      3.85s CPU      3.90s WALL (  111625 calls)
     fft_scatt_yz :      2.65s CPU      2.84s WALL (  111625 calls)

     Hubbard U routines
     new_ns       :      0.05s CPU      0.06s WALL (      66 calls)
     vhpsi        :      0.14s CPU      0.14s WALL (    2374 calls)

     PAW routines
     PAW_pot      :     38.98s CPU     38.99s WALL (      67 calls)
     PAW_symme    :      0.06s CPU      0.06s WALL (     133 calls)
 
     PWSCF        :   1m27.27s CPU   1m27.82s WALL

 
   This run was terminated on:  16:18:56   3Sep2019            

=------------------------------------------------------------------------------=
   JOB DONE.
=------------------------------------------------------------------------------=
