
     Program PWSCF v.6.3 starts on 14Sep2019 at 16:34:19 

     This program is part of the open-source Quantum ESPRESSO suite
     for quantum simulation of materials; please cite
         "P. Giannozzi et al., J. Phys.:Condens. Matter 21 395502 (2009);
         "P. Giannozzi et al., J. Phys.:Condens. Matter 29 465901 (2017);
          URL http://www.quantum-espresso.org", 
     in publications or presentations arising from this work. More details at
     http://www.quantum-espresso.org/quote

     Parallel version (MPI), running on     1 processors

     MPI processes distributed on     1 nodes
     Waiting for input...
     Reading input from standard input

     Current dimensions of program PWSCF are:
     Max number of different atomic species (ntypx) = 10
     Max number of k-points (npk) =  40000
     Max angular momentum in pseudopotentials (lmaxx) =  3

     Subspace diagonalization in iterative solution of the eigenvalue problem:
     a serial algorithm will be used


     G-vector sticks info
     --------------------
     sticks:   dense  smooth     PW     G-vecs:    dense   smooth      PW
     Sum         379     199     73                 9885     3465     749



     bravais-lattice index     =            4
     lattice parameter (alat)  =       4.8000  a.u.
     unit-cell volume          =     156.4014 (a.u.)^3
     number of atoms/cell      =            2
     number of atomic types    =            1
     number of electrons       =        24.00
     number of Kohn-Sham states=           16
     kinetic-energy cutoff     =      30.0000  Ry
     charge density cutoff     =     240.0000  Ry
     convergence threshold     =      1.0E-10
     mixing beta               =       0.7000
     number of iterations used =            8  plain     mixing
     Exchange-correlation      =  SLA  PW   PBE  PBE ( 1  4  3  4 0 0)
     nstep                     =           50


     celldm(1)=   4.800000  celldm(2)=   0.000000  celldm(3)=   1.633000
     celldm(4)=   0.000000  celldm(5)=   0.000000  celldm(6)=   0.000000

     crystal axes: (cart. coord. in units of alat)
               a(1) = (   1.000000   0.000000   0.000000 )  
               a(2) = (  -0.500000   0.866025   0.000000 )  
               a(3) = (   0.000000   0.000000   1.633000 )  

     reciprocal axes: (cart. coord. in units 2 pi/alat)
               b(1) = (  1.000000  0.577350 -0.000000 )  
               b(2) = (  0.000000  1.154701  0.000000 )  
               b(3) = (  0.000000 -0.000000  0.612370 )  


     PseudoPot. # 1 for Zn read from file:
     /home/matic/test.QE-2019/pseudo/Zn.pbe-van.UPF
     MD5 check sum: 8a117cd81793830d6ad9bd6443d05479
     Pseudo is Ultrasoft, Zval = 12.0
     Generated by new atomic code, or converted to UPF format
     Using radial grid of  869 points,  6 beta functions with: 
                l(1) =   0
                l(2) =   0
                l(3) =   1
                l(4) =   1
                l(5) =   2
                l(6) =   2
     Q(r) pseudized with  8 coefficients,  rinner =    0.800   0.800   0.800
                                                       0.800   0.800

     atomic species   valence    mass     pseudopotential
        Zn            12.00     1.00000     Zn( 1.00)

     24 Sym. Ops., with inversion, found (12 have fractional translation)



   Cartesian axes

     site n.     atom                  positions (alat units)
         1           Zn  tau(   1) = (   0.0000000   0.0000000   0.0000000  )
         2           Zn  tau(   2) = (   0.5000000   0.2886751   0.8165000  )

     number of k points=    24  Methfessel-Paxton smearing, width (Ry)=  0.0300
                       cart. coord. in units 2pi/alat
        k(    1) = (   0.0833333   0.1443376   0.0765462), wk =   0.0555556
        k(    2) = (   0.0833333   0.1443376   0.2296387), wk =   0.0555556
        k(    3) = (   0.0833333   0.3367877   0.0765462), wk =   0.1111111
        k(    4) = (   0.0833333   0.3367877   0.2296387), wk =   0.1111111
        k(    5) = (   0.0833333   0.5292377   0.0765462), wk =   0.1111111
        k(    6) = (   0.0833333   0.5292377   0.2296387), wk =   0.1111111
        k(    7) = (   0.0833333  -0.4330127   0.0765462), wk =   0.1111111
        k(    8) = (   0.0833333  -0.4330127   0.2296387), wk =   0.1111111
        k(    9) = (   0.0833333  -0.2405626   0.0765462), wk =   0.1111111
        k(   10) = (   0.0833333  -0.2405626   0.2296387), wk =   0.1111111
        k(   11) = (   0.0833333  -0.0481125   0.0765462), wk =   0.0555556
        k(   12) = (   0.0833333  -0.0481125   0.2296387), wk =   0.0555556
        k(   13) = (   0.2500000   0.4330127   0.0765462), wk =   0.0555556
        k(   14) = (   0.2500000   0.4330127   0.2296387), wk =   0.0555556
        k(   15) = (   0.2500000   0.6254628   0.0765462), wk =   0.1111111
        k(   16) = (   0.2500000   0.6254628   0.2296387), wk =   0.1111111
        k(   17) = (   0.2500000  -0.3367877   0.0765462), wk =   0.1111111
        k(   18) = (   0.2500000  -0.3367877   0.2296387), wk =   0.1111111
        k(   19) = (   0.2500000  -0.1443376   0.0765462), wk =   0.0555556
        k(   20) = (   0.2500000  -0.1443376   0.2296387), wk =   0.0555556
        k(   21) = (   0.4166667   0.7216878   0.0765462), wk =   0.0555556
        k(   22) = (   0.4166667   0.7216878   0.2296387), wk =   0.0555556
        k(   23) = (   0.4166667  -0.2405626   0.0765462), wk =   0.0555556
        k(   24) = (   0.4166667  -0.2405626   0.2296387), wk =   0.0555556

     Dense  grid:     9885 G-vectors     FFT dimensions: (  24,  24,  40)

     Smooth grid:     3465 G-vectors     FFT dimensions: (  18,  18,  27)

     Estimated max dynamical RAM per process >      40.75 MB

     Initial potential from superposition of free atoms

     starting charge   23.99970, renormalised to   24.00000
     Starting wfcs are   12 randomized atomic wfcs +    4 random wfcs

     total cpu time spent up to now is        1.2 secs

     Self-consistent Calculation

     iteration #  1     ecut=    30.00 Ry     beta= 0.70
     Davidson diagonalization with overlap
     ethr =  1.00E-02,  avg # of iterations =  3.7

     Threshold (ethr) on eigenvalues was too large:
     Diagonalizing with lowered threshold

     Davidson diagonalization with overlap
     ethr =  4.34E-04,  avg # of iterations =  1.3

     total cpu time spent up to now is        3.2 secs

     total energy              =    -253.07759759 Ry
     Harris-Foulkes estimate   =    -253.15010543 Ry
     estimated scf accuracy    <       0.09876892 Ry

     iteration #  2     ecut=    30.00 Ry     beta= 0.70
     Davidson diagonalization with overlap
     ethr =  4.12E-04,  avg # of iterations =  2.0

     total cpu time spent up to now is        4.3 secs

     total energy              =    -253.10524510 Ry
     Harris-Foulkes estimate   =    -253.14970218 Ry
     estimated scf accuracy    <       0.08500584 Ry

     iteration #  3     ecut=    30.00 Ry     beta= 0.70
     Davidson diagonalization with overlap
     ethr =  3.54E-04,  avg # of iterations =  2.0

     total cpu time spent up to now is        5.3 secs

     total energy              =    -253.12205631 Ry
     Harris-Foulkes estimate   =    -253.12209252 Ry
     estimated scf accuracy    <       0.00029047 Ry

     iteration #  4     ecut=    30.00 Ry     beta= 0.70
     Davidson diagonalization with overlap
     ethr =  1.21E-06,  avg # of iterations =  4.2

     total cpu time spent up to now is        6.4 secs

     total energy              =    -253.12208761 Ry
     Harris-Foulkes estimate   =    -253.12209476 Ry
     estimated scf accuracy    <       0.00001401 Ry

     iteration #  5     ecut=    30.00 Ry     beta= 0.70
     Davidson diagonalization with overlap
     ethr =  5.84E-08,  avg # of iterations =  2.0

     total cpu time spent up to now is        7.5 secs

     total energy              =    -253.12209174 Ry
     Harris-Foulkes estimate   =    -253.12209177 Ry
     estimated scf accuracy    <       0.00000008 Ry

     iteration #  6     ecut=    30.00 Ry     beta= 0.70
     Davidson diagonalization with overlap
     ethr =  3.50E-10,  avg # of iterations =  3.0

     total cpu time spent up to now is        8.7 secs

     total energy              =    -253.12209180 Ry
     Harris-Foulkes estimate   =    -253.12209180 Ry
     estimated scf accuracy    <          3.3E-09 Ry

     iteration #  7     ecut=    30.00 Ry     beta= 0.70
     Davidson diagonalization with overlap
     ethr =  1.38E-11,  avg # of iterations =  2.3

     total cpu time spent up to now is        9.7 secs

     total energy              =    -253.12209180 Ry
     Harris-Foulkes estimate   =    -253.12209180 Ry
     estimated scf accuracy    <          5.0E-09 Ry

     iteration #  8     ecut=    30.00 Ry     beta= 0.70
     Davidson diagonalization with overlap
     ethr =  1.38E-11,  avg # of iterations =  2.0

     total cpu time spent up to now is       10.7 secs

     End of self-consistent calculation

          k = 0.0833 0.1443 0.0765 (   427 PWs)   bands (ev):

     3.6967   6.1297   6.9821   7.2166   7.2457   7.3345   7.4681   7.4802
     7.5704   7.7356   8.1633  11.5214  16.6099  28.5076  28.5190  34.5613

          k = 0.0833 0.1443 0.2296 (   438 PWs)   bands (ev):

     4.7245   5.9943   6.9287   6.9808   7.0736   7.2848   7.3675   7.3809
     7.8469   7.9307   8.0703   8.8496  21.9154  28.1491  29.6413  29.6816

          k = 0.0833 0.3368 0.0765 (   433 PWs)   bands (ev):

     5.4826   6.3938   6.6847   6.9193   7.1688   7.3327   7.5111   7.7349
     7.9333   8.1010   8.2766  13.9154  18.3823  20.7450  25.3470  27.2865

          k = 0.0833 0.3368 0.2296 (   433 PWs)   bands (ev):

     5.9221   6.3878   6.6390   6.8958   7.2348   7.4235   7.5357   7.7632
     8.0127   8.1107   8.6421  10.6128  21.7504  23.1735  24.7362  26.5808

          k = 0.0833 0.5292 0.0765 (   440 PWs)   bands (ev):

     6.0731   6.1785   6.5091   7.0209   7.1485   7.4790   7.7836   8.1559
     8.2137   8.2453  11.0760  13.7984  18.0652  20.1526  23.0138  23.8850

          k = 0.0833 0.5292 0.2296 (   434 PWs)   bands (ev):

     5.9867   6.2105   6.5701   6.7269   7.3516   7.8047   7.8269   8.1013
     8.1885   8.2780  11.8545  13.3164  16.3240  17.6576  25.1098  27.1520

          k = 0.0833-0.4330 0.0765 (   436 PWs)   bands (ev):

     6.0079   6.2770   6.5456   6.9760   7.2105   7.3857   7.6428   8.0006
     8.1439   8.1773   9.2097  15.2798  17.4697  20.0017  24.0082  24.4850

          k = 0.0833-0.4330 0.2296 (   431 PWs)   bands (ev):

     6.0173   6.2768   6.5930   6.7932   7.3728   7.6173   7.7994   7.9145
     8.1099   8.2380   9.9419  12.0826  18.4668  20.4495  25.4537  25.8298

          k = 0.0833-0.2406 0.0765 (   432 PWs)   bands (ev):

     4.5130   6.3577   6.8760   6.9843   7.1898   7.3289   7.4889   7.5677
     7.7186   7.7695   8.1844  12.5808  17.3135  24.4475  26.7605  30.8963

          k = 0.0833-0.2406 0.2296 (   434 PWs)   bands (ev):

     5.3938   6.3734   6.7071   6.9424   7.0327   7.2685   7.4246   7.5815
     7.8933   8.0081   8.1743   9.5533  22.6391  25.5164  27.6386  27.9686

          k = 0.0833-0.0481 0.0765 (   422 PWs)   bands (ev):

     3.2606   5.9576   7.0678   7.2161   7.2389   7.2973   7.3860   7.5700
     7.5818   7.9245   8.1487  10.8615  16.2777  30.5528  32.1791  33.6426

          k = 0.0833-0.0481 0.2296 (   438 PWs)   bands (ev):

     4.3296   5.7171   7.0267   7.1135   7.1216   7.1930   7.2707   7.4990
     7.8375   7.8856   8.0546   8.4175  21.5388  27.8733  31.6216  33.3590

          k = 0.2500 0.4330 0.0765 (   434 PWs)   bands (ev):

     6.4035   6.4611   6.6715   6.7400   7.1976   7.2769   7.4618   7.8597
     8.1000   8.2499  10.5608  16.6087  18.4289  18.6039  21.2228  24.9038

          k = 0.2500 0.4330 0.2296 (   436 PWs)   bands (ev):

     6.3744   6.4025   6.7704   7.0192   7.0323   7.3428   7.4901   7.7198
     8.1190   8.2951  11.4476  13.5207  19.5523  19.5770  21.6711  21.7939

          k = 0.2500 0.6255 0.0765 (   438 PWs)   bands (ev):

     6.3568   6.5402   6.6202   6.8880   7.1151   7.2670   7.5528   8.0086
     8.0817   8.2045  12.6127  15.1683  17.7071  19.4353  21.5611  23.5740

          k = 0.2500 0.6255 0.2296 (   437 PWs)   bands (ev):

     6.3773   6.5423   6.7436   6.8789   7.0798   7.3445   7.6039   7.7367
     8.1231   8.2351  13.5450  15.1163  17.1257  18.5585  19.4307  21.3207

          k = 0.2500-0.3368 0.0765 (   429 PWs)   bands (ev):

     6.1188   6.4774   6.5647   6.8097   7.1682   7.3739   7.4031   7.7657
     8.1269   8.1539   9.0923  15.1723  19.0834  19.8999  21.7744  26.0318

          k = 0.2500-0.3368 0.2296 (   433 PWs)   bands (ev):

     6.1988   6.3978   6.7024   6.9641   7.1417   7.3546   7.4839   7.7481
     8.1046   8.2484   9.7676  11.8419  20.4692  22.4168  22.9308  24.6819

          k = 0.2500-0.1443 0.0765 (   435 PWs)   bands (ev):

     4.8669   6.3460   6.8470   6.9645   7.1613   7.3395   7.5588   7.7170
     7.7299   7.7731   8.1966  13.0386  17.6649  22.4020  28.2129  28.8547

          k = 0.2500-0.1443 0.2296 (   432 PWs)   bands (ev):

     5.6067   6.3545   6.6747   6.9045   7.2000   7.4416   7.4731   7.6173
     7.8775   8.0699   8.2039   9.8769  22.8697  23.5285  25.8614  29.4145

          k = 0.4167 0.7217 0.0765 (   433 PWs)   bands (ev):

     6.2121   6.3375   6.5771   6.9871   7.0765   7.5261   7.5308   8.1186
     8.1370   8.2242  12.5787  13.3624  19.4508  19.7418  20.8079  24.2582

          k = 0.4167 0.7217 0.2296 (   432 PWs)   bands (ev):

     6.1517   6.3966   6.6113   6.8573   7.1360   7.6459   7.7748   7.8638
     8.1512   8.2490  13.4114  13.7499  16.9135  17.0264  22.0023  24.1822

          k = 0.4167-0.2406 0.0765 (   438 PWs)   bands (ev):

     5.9886   6.1575   6.5000   7.0385   7.1950   7.4291   7.8580   8.1407
     8.1793   8.2506   9.8150  14.7631  17.1094  20.3248  22.9316  25.9482

          k = 0.4167-0.2406 0.2296 (   438 PWs)   bands (ev):

     5.9350   6.1650   6.5668   6.7040   7.4524   7.7751   7.8464   8.1913
     8.1990   8.2300  10.5886  12.6174  16.9975  18.8332  26.4507  27.4018

     the Fermi energy is    16.2390 ev

!    total energy              =    -253.12209180 Ry
     Harris-Foulkes estimate   =    -253.12209180 Ry
     estimated scf accuracy    <          2.2E-12 Ry

     The total energy is the sum of the following terms:

     one-electron contribution =    -105.15950301 Ry
     hartree contribution      =      83.81710605 Ry
     xc contribution           =     -37.26818891 Ry
     ewald contribution        =    -194.51124580 Ry
     smearing contrib. (-TS)   =      -0.00026013 Ry

     convergence has been achieved in   8 iterations

     Forces acting on atoms (cartesian axes, Ry/au):

     atom    1 type  1   force =    -0.00000000    0.00000000    0.00000000
     atom    2 type  1   force =     0.00000000   -0.00000000    0.00000000

     Total force =     0.000000     Total SCF correction =     0.000000


     Computing stress (Cartesian axis) and pressure

          total   stress  (Ry/bohr**3)                   (kbar)     P=  358.47
   0.00251021  -0.00000000   0.00000000        369.26     -0.00      0.00
  -0.00000000   0.00251021   0.00000000         -0.00    369.26      0.00
   0.00000000   0.00000000   0.00228999          0.00      0.00    336.87


     BFGS Geometry Optimization

     number of scf cycles    =   1
     number of bfgs steps    =   0

     enthalpy new            =    -253.1220917991 Ry

     new trust radius        =       0.1569638911 bohr
     new conv_thr            =            1.0E-10 Ry

     new unit-cell volume =    186.76029 a.u.^3 (    27.67502 Ang^3 )
     density =      0.12000 g/cm^3

CELL_PARAMETERS (alat=  4.80000000)
   1.062755169  -0.000000000   0.000000000
  -0.531377584   0.920372974   0.000000000
   0.000000000   0.000000000   1.726488688

ATOMIC_POSITIONS (crystal)
Zn      -0.000000000   0.000000000   0.000000000
Zn       0.666666667   0.333333333   0.500000000



     Writing output data file Zn.save/
     NEW-OLD atomic charge density approx. for the potential
     extrapolated charge   27.90128, renormalised to   24.00000

     total cpu time spent up to now is       12.3 secs

     Self-consistent Calculation

     iteration #  1     ecut=    30.00 Ry     beta= 0.70
     Davidson diagonalization with overlap
     ethr =  1.00E-06,  avg # of iterations =  7.4

     total cpu time spent up to now is       14.5 secs

     total energy              =    -216.49498542 Ry
     Harris-Foulkes estimate   =    -236.78367695 Ry
     estimated scf accuracy    <      33.07796349 Ry

     iteration #  2     ecut=    30.00 Ry     beta= 0.70
     Davidson diagonalization with overlap
     ethr =  1.00E-02,  avg # of iterations =  6.1

     total cpu time spent up to now is       16.2 secs

     total energy              =    -244.16815654 Ry
     Harris-Foulkes estimate   =    -284.32869644 Ry
     estimated scf accuracy    <     102.80892136 Ry

     iteration #  3     ecut=    30.00 Ry     beta= 0.70
     Davidson diagonalization with overlap
     ethr =  1.00E-02,  avg # of iterations =  4.7

     total cpu time spent up to now is       17.5 secs

     total energy              =    -255.82782130 Ry
     Harris-Foulkes estimate   =    -258.06064691 Ry
     estimated scf accuracy    <       9.75783727 Ry

     iteration #  4     ecut=    30.00 Ry     beta= 0.70
     Davidson diagonalization with overlap
     ethr =  1.00E-02,  avg # of iterations =  1.0

     total cpu time spent up to now is       18.4 secs

     total energy              =    -253.34158578 Ry
     Harris-Foulkes estimate   =    -255.91056280 Ry
     estimated scf accuracy    <       5.91344098 Ry

     iteration #  5     ecut=    30.00 Ry     beta= 0.70
     Davidson diagonalization with overlap
     ethr =  1.00E-02,  avg # of iterations =  2.0

     total cpu time spent up to now is       19.4 secs

     total energy              =    -253.79264371 Ry
     Harris-Foulkes estimate   =    -253.65734185 Ry
     estimated scf accuracy    <       1.32411169 Ry

     iteration #  6     ecut=    30.00 Ry     beta= 0.70
     Davidson diagonalization with overlap
     ethr =  5.52E-03,  avg # of iterations =  1.1

     total cpu time spent up to now is       20.2 secs

     total energy              =    -253.49993434 Ry
     Harris-Foulkes estimate   =    -253.79895390 Ry
     estimated scf accuracy    <       1.64554209 Ry

     iteration #  7     ecut=    30.00 Ry     beta= 0.70
     Davidson diagonalization with overlap
     ethr =  5.52E-03,  avg # of iterations =  1.0

     total cpu time spent up to now is       21.1 secs

     total energy              =    -253.32201314 Ry
     Harris-Foulkes estimate   =    -253.51981416 Ry
     estimated scf accuracy    <       0.97527898 Ry

     iteration #  8     ecut=    30.00 Ry     beta= 0.70
     Davidson diagonalization with overlap
     ethr =  4.06E-03,  avg # of iterations =  1.0

     total cpu time spent up to now is       21.9 secs

     total energy              =    -253.33825968 Ry
     Harris-Foulkes estimate   =    -253.33860868 Ry
     estimated scf accuracy    <       0.50793825 Ry

     iteration #  9     ecut=    30.00 Ry     beta= 0.70
     Davidson diagonalization with overlap
     ethr =  2.12E-03,  avg # of iterations =  1.0

     total cpu time spent up to now is       22.8 secs

     total energy              =    -253.35509560 Ry
     Harris-Foulkes estimate   =    -253.33887048 Ry
     estimated scf accuracy    <       0.51275184 Ry

     iteration # 10     ecut=    30.00 Ry     beta= 0.70
     Davidson diagonalization with overlap
     ethr =  2.12E-03,  avg # of iterations =  1.0

     total cpu time spent up to now is       23.6 secs

     total energy              =    -253.01017843 Ry
     Harris-Foulkes estimate   =    -253.35527291 Ry
     estimated scf accuracy    <       0.54928349 Ry

     iteration # 11     ecut=    30.00 Ry     beta= 0.70
     Davidson diagonalization with overlap
     ethr =  2.12E-03,  avg # of iterations =  2.0

     total cpu time spent up to now is       24.7 secs

     total energy              =    -253.16521735 Ry
     Harris-Foulkes estimate   =    -253.16878046 Ry
     estimated scf accuracy    <       0.02715709 Ry

     iteration # 12     ecut=    30.00 Ry     beta= 0.70
     Davidson diagonalization with overlap
     ethr =  1.13E-04,  avg # of iterations =  2.3

     total cpu time spent up to now is       25.6 secs

     total energy              =    -253.15246527 Ry
     Harris-Foulkes estimate   =    -253.16562902 Ry
     estimated scf accuracy    <       0.01603946 Ry

     iteration # 13     ecut=    30.00 Ry     beta= 0.70
     Davidson diagonalization with overlap
     ethr =  6.68E-05,  avg # of iterations =  2.1

     total cpu time spent up to now is       26.6 secs

     total energy              =    -253.15460301 Ry
     Harris-Foulkes estimate   =    -253.16703269 Ry
     estimated scf accuracy    <       0.02000055 Ry

     iteration # 14     ecut=    30.00 Ry     beta= 0.70
     Davidson diagonalization with overlap
     ethr =  6.68E-05,  avg # of iterations =  2.0

     total cpu time spent up to now is       27.7 secs

     total energy              =    -253.17022572 Ry
     Harris-Foulkes estimate   =    -253.16137258 Ry
     estimated scf accuracy    <       0.00195801 Ry

     iteration # 15     ecut=    30.00 Ry     beta= 0.70
     Davidson diagonalization with overlap
     ethr =  8.16E-06,  avg # of iterations =  3.8

     total cpu time spent up to now is       29.0 secs

     total energy              =    -253.17173639 Ry
     Harris-Foulkes estimate   =    -253.17771905 Ry
     estimated scf accuracy    <       0.05778007 Ry

     iteration # 16     ecut=    30.00 Ry     beta= 0.70
     Davidson diagonalization with overlap
     ethr =  8.16E-06,  avg # of iterations =  2.0

     total cpu time spent up to now is       30.0 secs

     total energy              =    -253.15448091 Ry
     Harris-Foulkes estimate   =    -253.17213345 Ry
     estimated scf accuracy    <       0.03825738 Ry

     iteration # 17     ecut=    30.00 Ry     beta= 0.70
     Davidson diagonalization with overlap
     ethr =  8.16E-06,  avg # of iterations =  3.0

     total cpu time spent up to now is       31.4 secs

     total energy              =    -253.16068810 Ry
     Harris-Foulkes estimate   =    -253.16088311 Ry
     estimated scf accuracy    <       0.00034580 Ry

     iteration # 18     ecut=    30.00 Ry     beta= 0.70
     Davidson diagonalization with overlap
     ethr =  1.44E-06,  avg # of iterations =  2.2

     total cpu time spent up to now is       32.6 secs

     total energy              =    -253.16097593 Ry
     Harris-Foulkes estimate   =    -253.16087604 Ry
     estimated scf accuracy    <       0.00018561 Ry

     iteration # 19     ecut=    30.00 Ry     beta= 0.70
     Davidson diagonalization with overlap
     ethr =  7.73E-07,  avg # of iterations =  1.9

     total cpu time spent up to now is       33.5 secs

     total energy              =    -253.16075140 Ry
     Harris-Foulkes estimate   =    -253.16099715 Ry
     estimated scf accuracy    <       0.00057011 Ry

     iteration # 20     ecut=    30.00 Ry     beta= 0.70
     Davidson diagonalization with overlap
     ethr =  7.73E-07,  avg # of iterations =  2.0

     total cpu time spent up to now is       34.5 secs

     total energy              =    -253.16081738 Ry
     Harris-Foulkes estimate   =    -253.16082663 Ry
     estimated scf accuracy    <       0.00001944 Ry

     iteration # 21     ecut=    30.00 Ry     beta= 0.70
     Davidson diagonalization with overlap
     ethr =  8.10E-08,  avg # of iterations =  2.0

     total cpu time spent up to now is       35.5 secs

     total energy              =    -253.16082067 Ry
     Harris-Foulkes estimate   =    -253.16082073 Ry
     estimated scf accuracy    <       0.00000009 Ry

     iteration # 22     ecut=    30.00 Ry     beta= 0.70
     Davidson diagonalization with overlap
     ethr =  3.83E-10,  avg # of iterations =  2.1

     total cpu time spent up to now is       36.5 secs

     total energy              =    -253.16082072 Ry
     Harris-Foulkes estimate   =    -253.16082074 Ry
     estimated scf accuracy    <       0.00000003 Ry

     iteration # 23     ecut=    30.00 Ry     beta= 0.70
     Davidson diagonalization with overlap
     ethr =  1.37E-10,  avg # of iterations =  2.0

     total cpu time spent up to now is       37.6 secs

     End of self-consistent calculation

          k = 0.0784 0.1358 0.0724 (   427 PWs)   bands (ev):

     2.0485   3.8848   4.4652   4.6419   4.6522   4.7126   4.8213   4.8248
     4.8827   5.0404   5.3159   8.8558  13.1798  23.6993  23.9588  29.5014

          k = 0.0784 0.1358 0.2172 (   438 PWs)   bands (ev):

     2.9555   3.8832   4.4578   4.4637   4.5352   4.6768   4.7492   4.7943
     5.0867   5.1609   5.2552   6.1460  18.0673  23.7287  24.7202  25.0999

          k = 0.0784 0.3169 0.0724 (   433 PWs)   bands (ev):

     3.5412   4.0545   4.3034   4.4475   4.6088   4.7231   4.8855   5.0114
     5.1522   5.2951   5.4752  10.9124  14.9182  16.7896  21.0423  22.7653

          k = 0.0784 0.3169 0.2172 (   433 PWs)   bands (ev):

     3.8136   4.1056   4.2339   4.4228   4.6927   4.7865   4.8930   5.0443
     5.2086   5.2792   5.9905   7.8868  17.7703  19.1764  20.4976  22.0924

          k = 0.0784 0.4980 0.0724 (   440 PWs)   bands (ev):

     3.8412   3.8994   4.1595   4.5256   4.5801   4.8369   5.0880   5.3110
     5.3532   5.3735   8.3682  10.7464  14.4948  16.4758  18.9331  19.7274

          k = 0.0784 0.4980 0.2172 (   434 PWs)   bands (ev):

     3.7736   3.9455   4.1770   4.2955   4.7312   5.0628   5.0925   5.2834
     5.3342   5.3978   9.1837  10.6037  12.6618  14.0408  20.8395  22.6757

          k = 0.0784-0.4074 0.0724 (   436 PWs)   bands (ev):

     3.8325   3.9695   4.1991   4.4935   4.6325   4.7695   4.9961   5.2024
     5.3019   5.3299   6.5375  12.2390  13.8512  16.3177  19.8893  20.1796

          k = 0.0784-0.4074 0.2172 (   431 PWs)   bands (ev):

     3.8130   4.0035   4.1979   4.3446   4.7493   4.9504   5.0511   5.1640
     5.2795   5.3688   7.3422   9.3128  14.7606  16.6191  21.2650  21.4202

          k = 0.0784-0.2264 0.0724 (   432 PWs)   bands (ev):

     2.7601   4.0422   4.3991   4.5075   4.6150   4.7168   4.8394   4.8916
     5.0035   5.0403   5.3332   9.7341  13.8692  20.1630  22.2822  26.0595

          k = 0.0784-0.2264 0.2172 (   434 PWs)   bands (ev):

     3.5020   4.1470   4.2884   4.4534   4.5133   4.6959   4.7783   4.9044
     5.1226   5.2107   5.3986   6.8410  18.7424  21.1400  23.2068  23.2544

          k = 0.0784-0.0453 0.0724 (   422 PWs)   bands (ev):

     1.6655   3.7601   4.5249   4.6309   4.6439   4.6903   4.7514   4.8788
     4.8838   5.1760   5.3048   8.3505  12.8476  25.6384  26.9878  28.7556

          k = 0.0784-0.0453 0.2172 (   438 PWs)   bands (ev):

     2.6133   3.6776   4.5028   4.5647   4.5728   4.6079   4.6659   4.9477
     5.0748   5.1207   5.2351   5.7319  17.7188  23.4944  26.6400  28.5261

          k = 0.2352 0.4074 0.0724 (   434 PWs)   bands (ev):

     4.0672   4.1355   4.2642   4.3481   4.6726   4.6920   4.8260   5.0988
     5.2750   5.3778   7.7497  13.4266  14.7597  14.9427  17.4291  20.5371

          k = 0.2352 0.4074 0.2172 (   436 PWs)   bands (ev):

     4.0521   4.0830   4.3426   4.5089   4.5376   4.7791   4.8400   4.9963
     5.2866   5.4095   8.6309  10.5669  15.6660  15.9733  17.6446  17.8635

          k = 0.2352 0.5885 0.0724 (   438 PWs)   bands (ev):

     4.0311   4.1737   4.2369   4.4426   4.5803   4.7068   4.8916   5.2066
     5.2626   5.3460   9.6540  11.9528  14.2891  15.6746  17.7289  19.4528

          k = 0.2352 0.5885 0.2172 (   437 PWs)   bands (ev):

     4.0509   4.1670   4.3315   4.4064   4.5707   4.7731   4.9284   5.0103
     5.2871   5.3671  10.5539  12.1178  13.5127  15.0314  15.5257  17.3947

          k = 0.2352-0.3169 0.0724 (   429 PWs)   bands (ev):

     3.9580   4.1178   4.2143   4.3751   4.6248   4.7651   4.7948   5.0320
     5.2936   5.3095   6.3289  12.0530  15.5204  16.0911  17.8076  21.6140

          k = 0.2352-0.3169 0.2172 (   433 PWs)   bands (ev):

     3.9607   4.0898   4.2845   4.4848   4.6083   4.7634   4.8471   5.0206
     5.2774   5.3760   7.0817   9.0287  16.6008  18.4495  18.8384  20.4291

          k = 0.2352-0.1358 0.0724 (   435 PWs)   bands (ev):

     3.0574   4.0248   4.4180   4.4739   4.6065   4.7079   4.9306   4.9933
     5.0167   5.0316   5.3400  10.1335  14.2153  18.3118  23.5804  24.2478

          k = 0.2352-0.1358 0.2172 (   432 PWs)   bands (ev):

     3.6350   4.1002   4.2668   4.4226   4.6755   4.7860   4.8812   4.9181
     5.1076   5.2477   5.4819   7.1706  19.0052  19.2993  21.4775  24.8538

          k = 0.3921 0.6791 0.0724 (   433 PWs)   bands (ev):

     3.9352   4.0196   4.2088   4.5090   4.5313   4.8697   4.9073   5.2875
     5.2994   5.3597   9.8187  10.1805  15.8003  16.0855  16.9564  19.9808

          k = 0.3921 0.6791 0.2172 (   432 PWs)   bands (ev):

     3.8912   4.0837   4.2057   4.3919   4.5911   4.9686   5.0562   5.1129
     5.3079   5.3774  10.6755  10.7602  13.2583  13.4796  18.0152  19.9840

          k = 0.3921-0.2264 0.0724 (   438 PWs)   bands (ev):

     3.7924   3.8823   4.1561   4.5465   4.6041   4.8029   5.1425   5.2951
     5.3269   5.3778   7.1971  11.7447  13.5367  16.6657  18.7812  21.6496

          k = 0.3921-0.2264 0.2172 (   438 PWs)   bands (ev):

     3.7417   3.9137   4.1778   4.2773   4.7950   5.0662   5.0847   5.3329
     5.3446   5.3614   8.0239   9.9003  13.3592  15.1346  22.1508  22.8996

     the Fermi energy is    12.6108 ev

!    total energy              =    -253.16082073 Ry
     Harris-Foulkes estimate   =    -253.16082073 Ry
     estimated scf accuracy    <          6.0E-11 Ry

     The total energy is the sum of the following terms:

     one-electron contribution =    -123.10602382 Ry
     hartree contribution      =      90.37911388 Ry
     xc contribution           =     -37.09295924 Ry
     ewald contribution        =    -183.34147587 Ry
     smearing contrib. (-TS)   =       0.00052432 Ry

     convergence has been achieved in  23 iterations

     Forces acting on atoms (cartesian axes, Ry/au):

     atom    1 type  1   force =     0.00000000    0.00000000    0.00000000
     atom    2 type  1   force =     0.00000000    0.00000000    0.00000000

     Total force =     0.000000     Total SCF correction =     0.000000


     Computing stress (Cartesian axis) and pressure

          total   stress  (Ry/bohr**3)                   (kbar)     P=   60.33
   0.00049045   0.00000000   0.00000000         72.15      0.00      0.00
   0.00000000   0.00049045   0.00000000          0.00     72.15      0.00
   0.00000000   0.00000000   0.00024945          0.00      0.00     36.69


     number of scf cycles    =   2
     number of bfgs steps    =   1

     enthalpy old            =    -253.1220917991 Ry
     enthalpy new            =    -253.1608207286 Ry

     CASE: enthalpy_new < enthalpy_old

     new trust radius        =       0.0442824769 bohr
     new conv_thr            =            1.0E-12 Ry

     new unit-cell volume =    194.48035 a.u.^3 (    28.81901 Ang^3 )
     density =      0.11524 g/cm^3

CELL_PARAMETERS (alat=  4.80000000)
   1.079973572  -0.000000000   0.000000000
  -0.539986786   0.935284549   0.000000000
   0.000000000   0.000000000   1.740985382

ATOMIC_POSITIONS (crystal)
Zn       0.000000000   0.000000000   0.000000000
Zn       0.666666667   0.333333333   0.500000000



     Writing output data file Zn.save/
     NEW-OLD atomic charge density approx. for the potential
     extrapolated charge   24.95269, renormalised to   24.00000

     total cpu time spent up to now is       39.1 secs

     Self-consistent Calculation

     iteration #  1     ecut=    30.00 Ry     beta= 0.70
     Davidson diagonalization with overlap
     ethr =  1.00E-06,  avg # of iterations =  5.0

     total cpu time spent up to now is       40.9 secs

     total energy              =    -251.95286376 Ry
     Harris-Foulkes estimate   =    -247.98091267 Ry
     estimated scf accuracy    <       0.99999216 Ry

     iteration #  2     ecut=    30.00 Ry     beta= 0.70
     Davidson diagonalization with overlap
     ethr =  4.17E-03,  avg # of iterations =  2.5

     total cpu time spent up to now is       42.0 secs

     total energy              =    -253.16736174 Ry
     Harris-Foulkes estimate   =    -254.25368819 Ry
     estimated scf accuracy    <       2.63363363 Ry

     iteration #  3     ecut=    30.00 Ry     beta= 0.70
     Davidson diagonalization with overlap
     ethr =  4.17E-03,  avg # of iterations =  2.0

     total cpu time spent up to now is       43.3 secs

     total energy              =    -253.18040332 Ry
     Harris-Foulkes estimate   =    -253.34051822 Ry
     estimated scf accuracy    <       0.50474603 Ry

     iteration #  4     ecut=    30.00 Ry     beta= 0.70
     Davidson diagonalization with overlap
     ethr =  2.10E-03,  avg # of iterations =  1.0

     total cpu time spent up to now is       44.4 secs

     total energy              =    -253.18720664 Ry
     Harris-Foulkes estimate   =    -253.20538836 Ry
     estimated scf accuracy    <       0.13386725 Ry

     iteration #  5     ecut=    30.00 Ry     beta= 0.70
     Davidson diagonalization with overlap
     ethr =  5.58E-04,  avg # of iterations =  1.0

     total cpu time spent up to now is       45.4 secs

     total energy              =    -253.15940966 Ry
     Harris-Foulkes estimate   =    -253.18925321 Ry
     estimated scf accuracy    <       0.07930802 Ry

     iteration #  6     ecut=    30.00 Ry     beta= 0.70
     Davidson diagonalization with overlap
     ethr =  3.30E-04,  avg # of iterations =  1.1

     total cpu time spent up to now is       46.6 secs

     total energy              =    -253.16313575 Ry
     Harris-Foulkes estimate   =    -253.16593568 Ry
     estimated scf accuracy    <       0.01016803 Ry

     iteration #  7     ecut=    30.00 Ry     beta= 0.70
     Davidson diagonalization with overlap
     ethr =  4.24E-05,  avg # of iterations =  1.8

     total cpu time spent up to now is       47.5 secs

     total energy              =    -253.16352413 Ry
     Harris-Foulkes estimate   =    -253.16386316 Ry
     estimated scf accuracy    <       0.00238018 Ry

     iteration #  8     ecut=    30.00 Ry     beta= 0.70
     Davidson diagonalization with overlap
     ethr =  9.92E-06,  avg # of iterations =  1.1

     total cpu time spent up to now is       48.4 secs

     total energy              =    -253.16294830 Ry
     Harris-Foulkes estimate   =    -253.16356867 Ry
     estimated scf accuracy    <       0.00152030 Ry

     iteration #  9     ecut=    30.00 Ry     beta= 0.70
     Davidson diagonalization with overlap
     ethr =  6.33E-06,  avg # of iterations =  2.0

     total cpu time spent up to now is       49.3 secs

     total energy              =    -253.16308830 Ry
     Harris-Foulkes estimate   =    -253.16313035 Ry
     estimated scf accuracy    <       0.00008713 Ry

     iteration # 10     ecut=    30.00 Ry     beta= 0.70
     Davidson diagonalization with overlap
     ethr =  3.63E-07,  avg # of iterations =  2.0

     total cpu time spent up to now is       50.3 secs

     total energy              =    -253.16310782 Ry
     Harris-Foulkes estimate   =    -253.16310776 Ry
     estimated scf accuracy    <       0.00000005 Ry

     iteration # 11     ecut=    30.00 Ry     beta= 0.70
     Davidson diagonalization with overlap
     ethr =  1.90E-10,  avg # of iterations =  4.0

     total cpu time spent up to now is       51.8 secs

     total energy              =    -253.16310818 Ry
     Harris-Foulkes estimate   =    -253.16310818 Ry
     estimated scf accuracy    <       0.00000037 Ry

     iteration # 12     ecut=    30.00 Ry     beta= 0.70
     Davidson diagonalization with overlap
     ethr =  1.90E-10,  avg # of iterations =  1.0

     total cpu time spent up to now is       52.7 secs

     total energy              =    -253.16310799 Ry
     Harris-Foulkes estimate   =    -253.16310818 Ry
     estimated scf accuracy    <       0.00000036 Ry

     iteration # 13     ecut=    30.00 Ry     beta= 0.70
     Davidson diagonalization with overlap
     ethr =  1.90E-10,  avg # of iterations =  2.5

     total cpu time spent up to now is       53.8 secs

     total energy              =    -253.16310807 Ry
     Harris-Foulkes estimate   =    -253.16310807 Ry
     estimated scf accuracy    <          2.7E-09 Ry

     iteration # 14     ecut=    30.00 Ry     beta= 0.70
     Davidson diagonalization with overlap
     ethr =  1.11E-11,  avg # of iterations =  1.0

     total cpu time spent up to now is       54.6 secs

     total energy              =    -253.16310807 Ry
     Harris-Foulkes estimate   =    -253.16310807 Ry
     estimated scf accuracy    <          2.9E-09 Ry

     iteration # 15     ecut=    30.00 Ry     beta= 0.70
     Davidson diagonalization with overlap
     ethr =  1.11E-11,  avg # of iterations =  1.0

     total cpu time spent up to now is       55.4 secs

     total energy              =    -253.16310807 Ry
     Harris-Foulkes estimate   =    -253.16310807 Ry
     estimated scf accuracy    <          3.0E-09 Ry

     iteration # 16     ecut=    30.00 Ry     beta= 0.70
     Davidson diagonalization with overlap
     ethr =  1.11E-11,  avg # of iterations =  1.0

     total cpu time spent up to now is       56.3 secs

     total energy              =    -253.16310807 Ry
     Harris-Foulkes estimate   =    -253.16310807 Ry
     estimated scf accuracy    <          2.6E-09 Ry

     iteration # 17     ecut=    30.00 Ry     beta= 0.70
     Davidson diagonalization with overlap
     ethr =  1.08E-11,  avg # of iterations =  1.0

     total cpu time spent up to now is       57.1 secs

     total energy              =    -253.16310807 Ry
     Harris-Foulkes estimate   =    -253.16310807 Ry
     estimated scf accuracy    <          1.2E-09 Ry

     iteration # 18     ecut=    30.00 Ry     beta= 0.70
     Davidson diagonalization with overlap
     ethr =  5.06E-12,  avg # of iterations =  1.1

     total cpu time spent up to now is       58.0 secs

     total energy              =    -253.16310807 Ry
     Harris-Foulkes estimate   =    -253.16310807 Ry
     estimated scf accuracy    <          1.7E-12 Ry

     iteration # 19     ecut=    30.00 Ry     beta= 0.70
     Davidson diagonalization with overlap
     ethr =  1.00E-13,  avg # of iterations =  2.0

     total cpu time spent up to now is       59.0 secs

     End of self-consistent calculation

          k = 0.0772 0.1336 0.0718 (   427 PWs)   bands (ev):

     1.7167   3.4168   3.9436   4.1083   4.1190   4.1658   4.2706   4.2753
     4.3280   4.4854   4.7330   8.3577  12.5788  22.6047  22.9245  28.3376

          k = 0.0772 0.1336 0.2154 (   438 PWs)   bands (ev):

     2.6050   3.4450   3.9403   3.9418   4.0109   4.1309   4.2014   4.2670
     4.5183   4.5920   4.6797   5.6256  17.4043  22.9501  23.6089  24.0886

          k = 0.0772 0.3118 0.0718 (   433 PWs)   bands (ev):

     3.1302   3.5650   3.8053   3.9296   4.0796   4.1802   4.3439   4.4528
     4.5762   4.7184   4.9090  10.3439  14.2873  15.9212  20.0717  21.8188

          k = 0.0772 0.3118 0.2154 (   433 PWs)   bands (ev):

     3.3647   3.6264   3.7334   3.9147   4.1628   4.2336   4.3445   4.4821
     4.6305   4.6973   5.4657   7.3578  16.8982  18.3846  19.6686  21.1043

          k = 0.0772 0.4900 0.0718 (   440 PWs)   bands (ev):

     3.3709   3.4233   3.6699   4.0026   4.0447   4.2928   4.5261   4.7269
     4.7659   4.7797   7.7984  10.0971  13.7896  15.7499  18.1329  18.8012

          k = 0.0772 0.4900 0.2154 (   434 PWs)   bands (ev):

     3.3074   3.4732   3.6781   3.7961   4.1830   4.4958   4.5262   4.6978
     4.7457   4.8056   8.6238  10.0503  11.8972  13.2997  19.8931  21.7407

          k = 0.0772-0.4009 0.0718 (   436 PWs)   bands (ev):

     3.3708   3.4873   3.7084   3.9734   4.0937   4.2300   4.4457   4.6248
     4.7137   4.7488   5.9942  11.6505  13.0692  15.6332  19.0279  19.2345

          k = 0.0772-0.4009 0.2154 (   431 PWs)   bands (ev):

     3.3475   3.5283   3.6987   3.8417   4.1998   4.3957   4.4819   4.5951
     4.6957   4.7781   6.8138   8.7626  13.9677  15.8170  20.3053  20.6389

          k = 0.0772-0.2227 0.0718 (   432 PWs)   bands (ev):

     2.4012   3.5569   3.8835   3.9882   4.0848   4.1731   4.2944   4.3398
     4.4430   4.4774   4.7506   9.1998  13.2568  19.2018  21.2726  25.0185

          k = 0.0772-0.2227 0.2154 (   434 PWs)   bands (ev):

     3.1127   3.6778   3.7839   3.9399   3.9930   4.1650   4.2264   4.3470
     4.5522   4.6363   4.8385   6.3199  18.0599  20.1704  22.2107  22.2357

          k = 0.0772-0.0445 0.0718 (   422 PWs)   bands (ev):

     1.3469   3.3043   4.0006   4.1004   4.1039   4.1523   4.2075   4.3187
     4.3212   4.6096   4.7220   7.8816  12.2505  24.5098  25.7971  27.6394

          k = 0.0772-0.0445 0.2154 (   438 PWs)   bands (ev):

     2.2776   3.2596   3.9802   4.0359   4.0423   4.0679   4.1243   4.4186
     4.5050   4.5521   4.6570   5.2164  17.0653  22.7570  25.4995  27.3598

          k = 0.2315 0.4009 0.0718 (   434 PWs)   bands (ev):

     3.5745   3.6421   3.7569   3.8441   4.1465   4.1571   4.2843   4.5346
     4.7006   4.7857   7.1671  12.8001  13.9203  14.1847  16.7136  19.6300

          k = 0.2315 0.4009 0.2154 (   436 PWs)   bands (ev):

     3.5637   3.5928   3.8370   3.9833   4.0211   4.2470   4.2915   4.4349
     4.7045   4.8159   8.0517   9.9719  14.8167  15.2046  16.7663  17.0714

          k = 0.2315 0.5791 0.0718 (   438 PWs)   bands (ev):

     3.5394   3.6752   3.7329   3.9294   4.0535   4.1743   4.3448   4.6328
     4.6900   4.7589   9.0246  11.2592  13.5423  14.9249  16.9597  18.6327

          k = 0.2315 0.5791 0.2154 (   437 PWs)   bands (ev):

     3.5610   3.6674   3.8289   3.8887   4.0503   4.2381   4.3750   4.4488
     4.7046   4.7779   9.9241  11.4983  12.7439  14.2935  14.7012  16.5762

          k = 0.2315-0.3118 0.0718 (   429 PWs)   bands (ev):

     3.4927   3.6223   3.7213   3.8643   4.0979   4.2241   4.2581   4.4731
     4.7160   4.7213   5.7672  11.4552  14.7286  15.3857  16.9327  20.6963

          k = 0.2315-0.3118 0.2154 (   433 PWs)   bands (ev):

     3.4855   3.6035   3.7821   3.9732   4.0797   4.2214   4.3031   4.4575
     4.6960   4.7844   6.5411   8.4736  15.7587  17.6050  17.9474  19.5659

          k = 0.2315-0.1336 0.0718 (   435 PWs)   bands (ev):

     2.6830   3.5391   3.9109   3.9520   4.0840   4.1547   4.3902   4.4286
     4.4640   4.4641   4.7562   9.5869  13.5971  17.4048  22.5258  23.2639

          k = 0.2315-0.1336 0.2154 (   432 PWs)   bands (ev):

     3.2209   3.6277   3.7640   3.9124   4.1516   4.2290   4.3464   4.3557
     4.5367   4.6694   4.9389   6.6502  18.3133  18.3776  20.5359  23.6780

          k = 0.3858 0.6682 0.0718 (   433 PWs)   bands (ev):

     3.4545   3.5342   3.7113   3.9918   4.0000   4.3228   4.3595   4.7108
     4.7151   4.7711   9.2374   9.4983  15.0542  15.3743  16.1055  19.1279

          k = 0.3858 0.6682 0.2154 (   432 PWs)   bands (ev):

     3.4147   3.5998   3.7044   3.8841   4.0581   4.4145   4.4914   4.5423
     4.7229   4.7881  10.1092  10.1212  12.4954  12.7648  17.1479  19.0901

          k = 0.3858-0.2227 0.0718 (   438 PWs)   bands (ev):

     3.3293   3.4073   3.6682   4.0287   4.0585   4.2621   4.5792   4.7050
     4.7385   4.7879   6.6561  11.1061  12.8261  15.9682  17.9526  20.6730

          k = 0.3858-0.2227 0.2154 (   438 PWs)   bands (ev):

     3.2796   3.4443   3.6799   3.7791   4.2395   4.5044   4.5135   4.7404
     4.7591   4.7684   7.4931   9.3537  12.5919  14.3691  21.3606  21.8933

     the Fermi energy is    11.9099 ev

!    total energy              =    -253.16310807 Ry
     Harris-Foulkes estimate   =    -253.16310807 Ry
     estimated scf accuracy    <          5.5E-14 Ry

     The total energy is the sum of the following terms:

     one-electron contribution =    -127.11128865 Ry
     hartree contribution      =      91.88571940 Ry
     xc contribution           =     -37.05938659 Ry
     ewald contribution        =    -180.87856975 Ry
     smearing contrib. (-TS)   =       0.00041752 Ry

     convergence has been achieved in  19 iterations

     Forces acting on atoms (cartesian axes, Ry/au):

     atom    1 type  1   force =     0.00000000    0.00000000    0.00000000
     atom    2 type  1   force =    -0.00000000   -0.00000000    0.00000000

     Total force =     0.000000     Total SCF correction =     0.000000


     Computing stress (Cartesian axis) and pressure

          total   stress  (Ry/bohr**3)                   (kbar)     P=   19.98
   0.00020250  -0.00000000   0.00000000         29.79     -0.00      0.00
   0.00000000   0.00020250   0.00000000          0.00     29.79      0.00
   0.00000000   0.00000000   0.00000237          0.00      0.00      0.35


     number of scf cycles    =   3
     number of bfgs steps    =   2

     enthalpy old            =    -253.1608207286 Ry
     enthalpy new            =    -253.1631080701 Ry

     CASE: enthalpy_new < enthalpy_old

     new trust radius        =       0.0309353565 bohr
     new conv_thr            =            1.0E-12 Ry

     new unit-cell volume =    199.11094 a.u.^3 (    29.50520 Ang^3 )
     density =      0.11256 g/cm^3

CELL_PARAMETERS (alat=  4.80000000)
   1.091952016  -0.000000000   0.000000000
  -0.545976008   0.945658185   0.000000000
   0.000000000   0.000000000   1.743547032

ATOMIC_POSITIONS (crystal)
Zn       0.000000000   0.000000000   0.000000000
Zn       0.666666667   0.333333333   0.500000000



     Writing output data file Zn.save/
     NEW-OLD atomic charge density approx. for the potential
     extrapolated charge   24.55814, renormalised to   24.00000

     total cpu time spent up to now is       60.5 secs

     Self-consistent Calculation

     iteration #  1     ecut=    30.00 Ry     beta= 0.70
     Davidson diagonalization with overlap
     ethr =  1.00E-06,  avg # of iterations =  4.5

     total cpu time spent up to now is       62.2 secs

     total energy              =    -252.81678908 Ry
     Harris-Foulkes estimate   =    -250.03134210 Ry
     estimated scf accuracy    <       0.28007592 Ry

     iteration #  2     ecut=    30.00 Ry     beta= 0.70
     Davidson diagonalization with overlap
     ethr =  1.17E-03,  avg # of iterations =  2.8

     total cpu time spent up to now is       63.3 secs

     total energy              =    -253.14202212 Ry
     Harris-Foulkes estimate   =    -253.48922747 Ry
     estimated scf accuracy    <       0.88341054 Ry

     iteration #  3     ecut=    30.00 Ry     beta= 0.70
     Davidson diagonalization with overlap
     ethr =  1.17E-03,  avg # of iterations =  2.0

     total cpu time spent up to now is       64.3 secs

     total energy              =    -253.16891219 Ry
     Harris-Foulkes estimate   =    -253.20908614 Ry
     estimated scf accuracy    <       0.13802477 Ry

     iteration #  4     ecut=    30.00 Ry     beta= 0.70
     Davidson diagonalization with overlap
     ethr =  5.75E-04,  avg # of iterations =  1.0

     total cpu time spent up to now is       65.2 secs

     total energy              =    -253.16704834 Ry
     Harris-Foulkes estimate   =    -253.17533135 Ry
     estimated scf accuracy    <       0.03837969 Ry

     iteration #  5     ecut=    30.00 Ry     beta= 0.70
     Davidson diagonalization with overlap
     ethr =  1.60E-04,  avg # of iterations =  1.0

     total cpu time spent up to now is       66.0 secs

     total energy              =    -253.16082982 Ry
     Harris-Foulkes estimate   =    -253.16830290 Ry
     estimated scf accuracy    <       0.01479526 Ry

     iteration #  6     ecut=    30.00 Ry     beta= 0.70
     Davidson diagonalization with overlap
     ethr =  6.16E-05,  avg # of iterations =  2.0

     total cpu time spent up to now is       67.1 secs

     total energy              =    -253.16361830 Ry
     Harris-Foulkes estimate   =    -253.16362021 Ry
     estimated scf accuracy    <       0.00002273 Ry

     iteration #  7     ecut=    30.00 Ry     beta= 0.70
     Davidson diagonalization with overlap
     ethr =  9.47E-08,  avg # of iterations =  3.4

     total cpu time spent up to now is       68.2 secs

     total energy              =    -253.16362888 Ry
     Harris-Foulkes estimate   =    -253.16362782 Ry
     estimated scf accuracy    <       0.00001570 Ry

     iteration #  8     ecut=    30.00 Ry     beta= 0.70
     Davidson diagonalization with overlap
     ethr =  6.54E-08,  avg # of iterations =  1.0

     total cpu time spent up to now is       69.0 secs

     total energy              =    -253.16361989 Ry
     Harris-Foulkes estimate   =    -253.16362900 Ry
     estimated scf accuracy    <       0.00001915 Ry

     iteration #  9     ecut=    30.00 Ry     beta= 0.70
     Davidson diagonalization with overlap
     ethr =  6.54E-08,  avg # of iterations =  2.0

     total cpu time spent up to now is       70.0 secs

     total energy              =    -253.16362381 Ry
     Harris-Foulkes estimate   =    -253.16362394 Ry
     estimated scf accuracy    <       0.00000023 Ry

     iteration # 10     ecut=    30.00 Ry     beta= 0.70
     Davidson diagonalization with overlap
     ethr =  9.39E-10,  avg # of iterations =  2.4

     total cpu time spent up to now is       71.1 secs

     total energy              =    -253.16362382 Ry
     Harris-Foulkes estimate   =    -253.16362410 Ry
     estimated scf accuracy    <       0.00000070 Ry

     iteration # 11     ecut=    30.00 Ry     beta= 0.70
     Davidson diagonalization with overlap
     ethr =  9.39E-10,  avg # of iterations =  2.0

     total cpu time spent up to now is       72.2 secs

     total energy              =    -253.16362394 Ry
     Harris-Foulkes estimate   =    -253.16362394 Ry
     estimated scf accuracy    <       0.00000007 Ry

     iteration # 12     ecut=    30.00 Ry     beta= 0.70
     Davidson diagonalization with overlap
     ethr =  2.85E-10,  avg # of iterations =  1.0

     total cpu time spent up to now is       73.0 secs

     total energy              =    -253.16362394 Ry
     Harris-Foulkes estimate   =    -253.16362394 Ry
     estimated scf accuracy    <       0.00000003 Ry

     iteration # 13     ecut=    30.00 Ry     beta= 0.70
     Davidson diagonalization with overlap
     ethr =  1.42E-10,  avg # of iterations =  1.0

     total cpu time spent up to now is       73.8 secs

     total energy              =    -253.16362394 Ry
     Harris-Foulkes estimate   =    -253.16362394 Ry
     estimated scf accuracy    <       0.00000002 Ry

     iteration # 14     ecut=    30.00 Ry     beta= 0.70
     Davidson diagonalization with overlap
     ethr =  8.93E-11,  avg # of iterations =  1.3

     total cpu time spent up to now is       74.7 secs

     total energy              =    -253.16362394 Ry
     Harris-Foulkes estimate   =    -253.16362394 Ry
     estimated scf accuracy    <          1.5E-09 Ry

     iteration # 15     ecut=    30.00 Ry     beta= 0.70
     Davidson diagonalization with overlap
     ethr =  6.42E-12,  avg # of iterations =  1.0

     total cpu time spent up to now is       75.5 secs

     total energy              =    -253.16362394 Ry
     Harris-Foulkes estimate   =    -253.16362394 Ry
     estimated scf accuracy    <          4.3E-10 Ry

     iteration # 16     ecut=    30.00 Ry     beta= 0.70
     Davidson diagonalization with overlap
     ethr =  1.81E-12,  avg # of iterations =  1.0

     total cpu time spent up to now is       76.3 secs

     total energy              =    -253.16362394 Ry
     Harris-Foulkes estimate   =    -253.16362394 Ry
     estimated scf accuracy    <          3.8E-12 Ry

     iteration # 17     ecut=    30.00 Ry     beta= 0.70
     Davidson diagonalization with overlap
     ethr =  1.00E-13,  avg # of iterations =  2.7

     total cpu time spent up to now is       77.3 secs

     End of self-consistent calculation

          k = 0.0763 0.1322 0.0717 (   427 PWs)   bands (ev):

     1.5297   3.1533   3.6496   3.8067   3.8204   3.8549   3.9597   3.9642
     4.0161   4.1748   4.4068   8.1117  12.3129  21.9139  22.2737  27.6334

          k = 0.0763 0.1322 0.2151 (   438 PWs)   bands (ev):

     2.4137   3.2014   3.6460   3.6470   3.7173   3.8187   3.8898   3.9735
     4.1987   4.2727   4.3580   5.3501  17.1297  22.5920  22.9152  23.5074

          k = 0.0763 0.3084 0.0717 (   433 PWs)   bands (ev):

     2.8921   3.2876   3.5232   3.6347   3.7810   3.8735   4.0397   4.1402
     4.2497   4.3956   4.5909  10.0570  13.9928  15.3863  19.4634  21.2809

          k = 0.0763 0.3084 0.2151 (   433 PWs)   bands (ev):

     3.1076   3.3553   3.4513   3.6326   3.8624   3.9175   4.0341   4.1652
     4.3044   4.3701   5.1743   7.0753  16.3675  17.9454  19.2575  20.4973

          k = 0.0763 0.4847 0.0717 (   440 PWs)   bands (ev):

     3.1031   3.1546   3.3941   3.7026   3.7430   3.9883   4.2075   4.3973
     4.4366   4.4437   7.4613   9.7075  13.4129  15.3632  17.7226  18.2249

          k = 0.0763 0.4847 0.2151 (   434 PWs)   bands (ev):

     3.0422   3.2077   3.3967   3.5193   3.8699   4.1759   4.2056   4.3648
     4.4130   4.4721   8.2977   9.7353  11.4541  12.8793  19.3115  21.1929

          k = 0.0763-0.3965 0.0717 (   436 PWs)   bands (ev):

     3.1068   3.2148   3.4312   3.6774   3.7871   3.9281   4.1350   4.2985
     4.3797   4.4252   5.6814  11.3425  12.5988  15.2999  18.5418  18.6540

          k = 0.0763-0.3965 0.2151 (   431 PWs)   bands (ev):

     3.0821   3.2606   3.4171   3.5628   3.8857   4.0814   4.1592   4.2748
     4.3658   4.4449   6.5134   8.4624  13.4935  15.3528  19.7128  20.2760

          k = 0.0763-0.2203 0.0717 (   432 PWs)   bands (ev):

     2.1959   3.2816   3.5921   3.6926   3.7876   3.8642   3.9898   4.0296
     4.1275   4.1602   4.4253   8.9334  12.9799  18.6016  20.6393  24.4124

          k = 0.0763-0.2203 0.2151 (   434 PWs)   bands (ev):

     2.8930   3.4134   3.4981   3.6527   3.7011   3.8647   3.9142   4.0295
     4.2314   4.3142   4.5277   6.0444  17.7682  19.5739  21.5776  21.6429

          k = 0.0763-0.0441 0.0717 (   422 PWs)   bands (ev):

     1.1689   3.0492   3.7059   3.7971   3.8055   3.8500   3.9014   4.0003
     4.0003   4.2923   4.3954   7.6519  11.9890  23.7945  25.0399  26.9373

          k = 0.0763-0.0441 0.2151 (   438 PWs)   bands (ev):

     2.0971   3.0299   3.6844   3.7372   3.7443   3.7596   3.8169   4.1221
     4.1839   4.2327   4.3332   4.9438  16.7982  22.4737  24.7848  26.0525

          k = 0.2289 0.3965 0.0717 (   434 PWs)   bands (ev):

     3.2930   3.3591   3.4666   3.5576   3.8480   3.8562   3.9818   4.2204
     4.3821   4.4509   6.8254  12.4630  13.4137  13.7226  16.3574  19.1163

          k = 0.2289 0.3965 0.2151 (   436 PWs)   bands (ev):

     3.2859   3.3128   3.5520   3.6846   3.7312   3.9476   3.9819   4.1187
     4.3772   4.4808   7.7177   9.6418  14.3028  14.7446  16.2505  16.6156

          k = 0.2289 0.5728 0.0717 (   438 PWs)   bands (ev):

     3.2579   3.3904   3.4438   3.6383   3.7559   3.8731   4.0393   4.3119
     4.3729   4.4287   8.6479  10.8385  13.0848  14.5203  16.5418  18.1929

          k = 0.2289 0.5728 0.2151 (   437 PWs)   bands (ev):

     3.2817   3.3829   3.5455   3.5943   3.7580   3.9362   4.0627   4.1329
     4.3770   4.4461   9.5535  11.1409  12.2931  13.8670  14.2124  16.1028

          k = 0.2289-0.3084 0.0717 (   429 PWs)   bands (ev):

     3.2236   3.3403   3.4405   3.5736   3.8008   3.9192   3.9572   4.1618
     4.3872   4.3951   5.4451  11.1488  14.2337  15.0493  16.3920  20.1785

          k = 0.2289-0.3084 0.2151 (   433 PWs)   bands (ev):

     3.2137   3.3267   3.4996   3.6880   3.7795   3.9133   3.9970   4.1403
     4.3688   4.4502   6.2354   8.1722  15.2485  17.1093  17.4072  19.0771

          k = 0.2289-0.1322 0.0717 (   435 PWs)   bands (ev):

     2.4678   3.2642   3.6243   3.6550   3.7941   3.8363   4.0877   4.1085
     4.1428   4.1574   4.4301   9.3134  13.3147  16.8426  21.8584  22.6968

          k = 0.2289-0.1322 0.2151 (   432 PWs)   bands (ev):

     2.9848   3.3623   3.4791   3.6288   3.8557   3.9092   4.0350   4.0467
     4.2150   4.3456   4.6392   6.3746  17.8158  18.0050  19.9850  23.0044

          k = 0.3816 0.6609 0.0717 (   433 PWs)   bands (ev):

     3.1801   3.2592   3.4279   3.6981   3.6997   4.0168   4.0486   4.3857
     4.3899   4.4401   8.8920   9.0872  14.6412  15.0027  15.5800  18.6948

          k = 0.3816 0.6609 0.2151 (   432 PWs)   bands (ev):

     3.1433   3.3264   3.4217   3.6011   3.7546   4.1027   4.1709   4.2183
     4.3934   4.4566   9.7406   9.7811  12.0555  12.3662  16.6217  18.5639

          k = 0.3816-0.2203 0.0717 (   438 PWs)   bands (ev):

     3.0657   3.1394   3.3942   3.7375   3.7444   3.9599   4.2620   4.3683
     4.4056   4.4573   6.3406  10.7238  12.4457  15.6140  17.5114  20.0562

          k = 0.3816-0.2203 0.2151 (   438 PWs)   bands (ev):

     3.0168   3.1808   3.3991   3.5031   3.9218   4.1870   4.1900   4.4033
     4.4303   4.4321   7.1879   9.0517  12.1387  13.9305  20.9953  21.2694

     the Fermi energy is    11.5331 ev

!    total energy              =    -253.16362394 Ry
     Harris-Foulkes estimate   =    -253.16362394 Ry
     estimated scf accuracy    <          3.7E-14 Ry

     The total energy is the sum of the following terms:

     one-electron contribution =    -129.43448272 Ry
     hartree contribution      =      92.76786472 Ry
     xc contribution           =     -37.04096874 Ry
     ewald contribution        =    -179.45634836 Ry
     smearing contrib. (-TS)   =       0.00031116 Ry

     convergence has been achieved in  17 iterations

     Forces acting on atoms (cartesian axes, Ry/au):

     atom    1 type  1   force =     0.00000000    0.00000000   -0.00000000
     atom    2 type  1   force =     0.00000000    0.00000000   -0.00000000

     Total force =     0.000000     Total SCF correction =     0.000000


     Computing stress (Cartesian axis) and pressure

          total   stress  (Ry/bohr**3)                   (kbar)     P=   -0.14
   0.00004362   0.00000000  -0.00000000          6.42      0.00     -0.00
  -0.00000000   0.00004362  -0.00000000         -0.00      6.42     -0.00
  -0.00000000  -0.00000000  -0.00009020         -0.00     -0.00    -13.27


     number of scf cycles    =   4
     number of bfgs steps    =   3

     enthalpy old            =    -253.1631080701 Ry
     enthalpy new            =    -253.1636239426 Ry

     CASE: enthalpy_new < enthalpy_old

     new trust radius        =       0.0095675983 bohr
     new conv_thr            =            1.0E-12 Ry

     new unit-cell volume =    199.95269 a.u.^3 (    29.62993 Ang^3 )
     density =      0.11209 g/cm^3

CELL_PARAMETERS (alat=  4.80000000)
   1.095653952  -0.000000000  -0.000000000
  -0.547826976   0.948864156  -0.000000000
   0.000000000   0.000000000   1.739106096

ATOMIC_POSITIONS (crystal)
Zn       0.000000000   0.000000000   0.000000000
Zn       0.666666667   0.333333333   0.500000000



     Writing output data file Zn.save/
     NEW-OLD atomic charge density approx. for the potential
     extrapolated charge   24.10103, renormalised to   24.00000

     total cpu time spent up to now is       78.9 secs

     Self-consistent Calculation

     iteration #  1     ecut=    30.00 Ry     beta= 0.70
     Davidson diagonalization with overlap
     ethr =  1.00E-06,  avg # of iterations =  3.3

     total cpu time spent up to now is       80.2 secs

     total energy              =    -253.15466713 Ry
     Harris-Foulkes estimate   =    -252.58610738 Ry
     estimated scf accuracy    <       0.00710013 Ry

     iteration #  2     ecut=    30.00 Ry     beta= 0.70
     Davidson diagonalization with overlap
     ethr =  2.96E-05,  avg # of iterations =  3.0

     total cpu time spent up to now is       81.4 secs

     total energy              =    -253.16225122 Ry
     Harris-Foulkes estimate   =    -253.17256973 Ry
     estimated scf accuracy    <       0.02795388 Ry

     iteration #  3     ecut=    30.00 Ry     beta= 0.70
     Davidson diagonalization with overlap
     ethr =  2.96E-05,  avg # of iterations =  2.0

     total cpu time spent up to now is       82.4 secs

     total energy              =    -253.16353447 Ry
     Harris-Foulkes estimate   =    -253.16470963 Ry
     estimated scf accuracy    <       0.00326511 Ry

     iteration #  4     ecut=    30.00 Ry     beta= 0.70
     Davidson diagonalization with overlap
     ethr =  1.36E-05,  avg # of iterations =  1.2

     total cpu time spent up to now is       83.3 secs

     total energy              =    -253.16379968 Ry
     Harris-Foulkes estimate   =    -253.16381170 Ry
     estimated scf accuracy    <       0.00041064 Ry

     iteration #  5     ecut=    30.00 Ry     beta= 0.70
     Davidson diagonalization with overlap
     ethr =  1.71E-06,  avg # of iterations =  1.0

     total cpu time spent up to now is       84.1 secs

     total energy              =    -253.16361351 Ry
     Harris-Foulkes estimate   =    -253.16380762 Ry
     estimated scf accuracy    <       0.00036698 Ry

     iteration #  6     ecut=    30.00 Ry     beta= 0.70
     Davidson diagonalization with overlap
     ethr =  1.53E-06,  avg # of iterations =  2.0

     total cpu time spent up to now is       85.1 secs

     total energy              =    -253.16370040 Ry
     Harris-Foulkes estimate   =    -253.16370069 Ry
     estimated scf accuracy    <       0.00000202 Ry

     iteration #  7     ecut=    30.00 Ry     beta= 0.70
     Davidson diagonalization with overlap
     ethr =  8.41E-09,  avg # of iterations =  2.0

     total cpu time spent up to now is       86.0 secs

     total energy              =    -253.16370041 Ry
     Harris-Foulkes estimate   =    -253.16370057 Ry
     estimated scf accuracy    <       0.00000109 Ry

     iteration #  8     ecut=    30.00 Ry     beta= 0.70
     Davidson diagonalization with overlap
     ethr =  4.54E-09,  avg # of iterations =  1.0

     total cpu time spent up to now is       86.8 secs

     total energy              =    -253.16369998 Ry
     Harris-Foulkes estimate   =    -253.16370043 Ry
     estimated scf accuracy    <       0.00000060 Ry

     iteration #  9     ecut=    30.00 Ry     beta= 0.70
     Davidson diagonalization with overlap
     ethr =  2.51E-09,  avg # of iterations =  2.0

     total cpu time spent up to now is       87.9 secs

     total energy              =    -253.16370021 Ry
     Harris-Foulkes estimate   =    -253.16370035 Ry
     estimated scf accuracy    <       0.00000035 Ry

     iteration # 10     ecut=    30.00 Ry     beta= 0.70
     Davidson diagonalization with overlap
     ethr =  1.45E-09,  avg # of iterations =  2.0

     total cpu time spent up to now is       88.8 secs

     total energy              =    -253.16370024 Ry
     Harris-Foulkes estimate   =    -253.16370025 Ry
     estimated scf accuracy    <       0.00000002 Ry

     iteration # 11     ecut=    30.00 Ry     beta= 0.70
     Davidson diagonalization with overlap
     ethr =  8.35E-11,  avg # of iterations =  2.0

     total cpu time spent up to now is       89.8 secs

     total energy              =    -253.16370024 Ry
     Harris-Foulkes estimate   =    -253.16370024 Ry
     estimated scf accuracy    <          5.2E-11 Ry

     iteration # 12     ecut=    30.00 Ry     beta= 0.70
     Davidson diagonalization with overlap
     ethr =  2.15E-13,  avg # of iterations =  3.6

     total cpu time spent up to now is       91.3 secs

     total energy              =    -253.16370024 Ry
     Harris-Foulkes estimate   =    -253.16370024 Ry
     estimated scf accuracy    <          1.7E-12 Ry

     iteration # 13     ecut=    30.00 Ry     beta= 0.70
     Davidson diagonalization with overlap
     ethr =  1.00E-13,  avg # of iterations =  1.2

     total cpu time spent up to now is       92.2 secs

     total energy              =    -253.16370024 Ry
     Harris-Foulkes estimate   =    -253.16370024 Ry
     estimated scf accuracy    <          5.4E-12 Ry

     iteration # 14     ecut=    30.00 Ry     beta= 0.70
     Davidson diagonalization with overlap
     ethr =  1.00E-13,  avg # of iterations =  1.7

     total cpu time spent up to now is       93.0 secs

     total energy              =    -253.16370024 Ry
     Harris-Foulkes estimate   =    -253.16370024 Ry
     estimated scf accuracy    <          1.8E-12 Ry

     iteration # 15     ecut=    30.00 Ry     beta= 0.70
     Davidson diagonalization with overlap
     ethr =  1.00E-13,  avg # of iterations =  1.0

     total cpu time spent up to now is       93.8 secs

     End of self-consistent calculation

          k = 0.0761 0.1317 0.0719 (   427 PWs)   bands (ev):

     1.4955   3.1079   3.5980   3.7528   3.7693   3.7981   3.9045   3.9085
     3.9618   4.1221   4.3509   8.0959  12.3254  21.7309  22.1033  27.4794

          k = 0.0761 0.1317 0.2156 (   438 PWs)   bands (ev):

     2.3844   3.1634   3.5926   3.5946   3.6676   3.7597   3.8324   3.9254
     4.1427   4.2172   4.3031   5.3127  17.1639  22.5813  22.7377  23.4145

          k = 0.0761 0.3074 0.0719 (   433 PWs)   bands (ev):

     2.8458   3.2381   3.4730   3.5806   3.7280   3.8190   3.9871   4.0869
     4.1903   4.3404   4.5336  10.0331  13.9918  15.2530  19.3051  21.1830

          k = 0.0761 0.3074 0.2156 (   433 PWs)   bands (ev):

     3.0606   3.3080   3.4023   3.5868   3.8083   3.8580   3.9788   4.1090
     4.2463   4.3129   5.1236   7.0363  16.2412  17.8722  19.2343  20.3474

          k = 0.0761 0.4830 0.0719 (   440 PWs)   bands (ev):

     3.0544   3.1078   3.3463   3.6464   3.6894   3.9368   4.1500   4.3384
     4.3778   4.3847   7.3876   9.6178  13.3627  15.3133  17.6858  18.0764

          k = 0.0761 0.4830 0.2156 (   434 PWs)   bands (ev):

     2.9942   3.1624   3.3474   3.4751   3.8112   4.1189   4.1478   4.3033
     4.3530   4.4130   8.2311   9.6754  11.3648  12.8011  19.1687  21.0792

          k = 0.0761-0.3952 0.0719 (   436 PWs)   bands (ev):

     3.0581   3.1668   3.3825   3.6234   3.7303   3.8768   4.0802   4.2401
     4.3183   4.3710   5.6182  11.3058  12.4917  15.2838  18.4481  18.5193

          k = 0.0761-0.3952 0.2156 (   431 PWs)   bands (ev):

     3.0339   3.2145   3.3679   3.5180   3.8266   4.0245   4.1005   4.2186
     4.3066   4.3854   6.4566   8.4165  13.3859  15.2601  19.5673  20.2738

          k = 0.0761-0.2196 0.0719 (   432 PWs)   bands (ev):

     2.1562   3.2323   3.5403   3.6387   3.7366   3.8079   3.9383   3.9758
     4.0720   4.1040   4.3702   8.9139  12.9873  18.4469  20.4740  24.2918

          k = 0.0761-0.2196 0.2156 (   434 PWs)   bands (ev):

     2.8548   3.3692   3.4466   3.6036   3.6512   3.8106   3.8585   3.9705
     4.1751   4.2587   4.4752   6.0077  17.7948  19.4273  21.4249  21.5063

          k = 0.0761-0.0439 0.0719 (   422 PWs)   bands (ev):

     1.1376   3.0067   3.6547   3.7410   3.7573   3.7976   3.8479   3.9402
     3.9419   4.2383   4.3391   7.6394  12.0039  23.6038  24.8352  26.7557

          k = 0.0761-0.0439 0.2156 (   438 PWs)   bands (ev):

     2.0714   2.9963   3.6314   3.6831   3.6938   3.7019   3.7608   4.0730
     4.1271   4.1769   4.2775   4.9063  16.8355  22.5352  24.6017  25.8527

          k = 0.2282 0.3952 0.0719 (   434 PWs)   bands (ev):

     3.2409   3.3059   3.4123   3.5059   3.7940   3.8038   3.9311   4.1680
     4.3301   4.3906   6.7517  12.4139  13.2984  13.6105  16.3331  19.0238

          k = 0.2282 0.3952 0.2156 (   436 PWs)   bands (ev):

     3.2356   3.2611   3.5022   3.6302   3.6818   3.8958   3.9270   4.0631
     4.3197   4.4209   7.6508   9.5868  14.1822  14.6402  16.1411  16.5262

          k = 0.2282 0.5709 0.0719 (   438 PWs)   bands (ev):

     3.2052   3.3377   3.3891   3.5861   3.7030   3.8194   3.9879   4.2572
     4.3215   4.3707   8.5619  10.7383  12.9732  14.4624  16.4810  18.1330

          k = 0.2282 0.5709 0.2156 (   437 PWs)   bands (ev):

     3.2306   3.3309   3.4961   3.5405   3.7079   3.8831   4.0075   4.0775
     4.3195   4.3874   9.4741  11.0691  12.1997  13.7826  14.1033  16.0074

          k = 0.2282-0.3074 0.0719 (   429 PWs)   bands (ev):

     3.1722   3.2888   3.3895   3.5205   3.7482   3.8657   3.9056   4.1099
     4.3263   4.3416   5.3808  11.1192  14.1106  15.0355  16.2556  20.0871

          k = 0.2282-0.3074 0.2156 (   433 PWs)   bands (ev):

     3.1637   3.2766   3.4509   3.6410   3.7251   3.8573   3.9435   4.0841
     4.3112   4.3902   6.1783   8.1270  15.1287  17.0069  17.2784  18.9866

          k = 0.2282-0.1317 0.0719 (   435 PWs)   bands (ev):

     2.4259   3.2154   3.5737   3.6006   3.7472   3.7744   4.0364   4.0503
     4.0847   4.1067   4.3747   9.2925  13.3194  16.7002  21.6799  22.5889

          k = 0.2282-0.1317 0.2156 (   432 PWs)   bands (ev):

     2.9426   3.3179   3.4281   3.5824   3.8033   3.8476   3.9751   3.9958
     4.1581   4.2900   4.5888   6.3380  17.6806  18.0183  19.8733  22.8321

          k = 0.3803 0.6587 0.0719 (   433 PWs)   bands (ev):

     3.1295   3.2103   3.3759   3.6429   3.6482   3.9649   3.9924   4.3273
     4.3364   4.3821   8.8146   8.9914  14.5752  14.9602  15.4481  18.6568

          k = 0.3803 0.6587 0.2156 (   432 PWs)   bands (ev):

     3.0938   3.2783   3.3723   3.5543   3.6987   4.0484   4.1126   4.1591
     4.3350   4.3983   9.6564   9.7144  11.9688  12.2969  16.4968  18.4519

          k = 0.3803-0.2196 0.0719 (   438 PWs)   bands (ev):

     3.0180   3.0929   3.3474   3.6832   3.6872   3.9091   4.2064   4.3051
     4.3451   4.4004   6.2747  10.6373  12.3934  15.5833  17.4559  19.8920

          k = 0.3803-0.2196 0.2156 (   438 PWs)   bands (ev):

     2.9693   3.1361   3.3500   3.4592   3.8617   4.1305   4.1314   4.3409
     4.3708   4.3730   7.1283   9.0026  12.0398  13.8461  20.9991  21.1121

     the Fermi energy is    11.4724 ev

!    total energy              =    -253.16370024 Ry
     Harris-Foulkes estimate   =    -253.16370024 Ry
     estimated scf accuracy    <          6.1E-13 Ry

     The total energy is the sum of the following terms:

     one-electron contribution =    -129.86181062 Ry
     hartree contribution      =      92.93218266 Ry
     xc contribution           =     -37.03788919 Ry
     ewald contribution        =    -179.19644461 Ry
     smearing contrib. (-TS)   =       0.00026152 Ry

     convergence has been achieved in  15 iterations

     Forces acting on atoms (cartesian axes, Ry/au):

     atom    1 type  1   force =     0.00000000   -0.00000000    0.00000000
     atom    2 type  1   force =    -0.00000000    0.00000000   -0.00000000

     Total force =     0.000000     Total SCF correction =     0.000000


     Computing stress (Cartesian axis) and pressure

          total   stress  (Ry/bohr**3)                   (kbar)     P=   -3.27
   0.00000579   0.00000000  -0.00000000          0.85      0.00     -0.00
   0.00000000   0.00000579  -0.00000000          0.00      0.85     -0.00
  -0.00000000  -0.00000000  -0.00007830         -0.00     -0.00    -11.52


     number of scf cycles    =   5
     number of bfgs steps    =   4

     enthalpy old            =    -253.1636239426 Ry
     enthalpy new            =    -253.1637002434 Ry

     CASE: enthalpy_new < enthalpy_old

     new trust radius        =       0.0133972456 bohr
     new conv_thr            =            1.0E-12 Ry

     new unit-cell volume =    199.98382 a.u.^3 (    29.63454 Ang^3 )
     density =      0.11207 g/cm^3

CELL_PARAMETERS (alat=  4.80000000)
   1.098343871  -0.000000000  -0.000000000
  -0.549171935   0.951193694  -0.000000000
   0.000000000   0.000000000   1.730867599

ATOMIC_POSITIONS (crystal)
Zn       0.000000000   0.000000000   0.000000000
Zn       0.666666667   0.333333333   0.500000000



     Writing output data file Zn.save/
     NEW-OLD atomic charge density approx. for the potential
     extrapolated charge   24.00374, renormalised to   24.00000

     total cpu time spent up to now is       95.3 secs

     Self-consistent Calculation

     iteration #  1     ecut=    30.00 Ry     beta= 0.70
     Davidson diagonalization with overlap
     ethr =  1.00E-06,  avg # of iterations =  3.3

     Threshold (ethr) on eigenvalues was too large:
     Diagonalizing with lowered threshold

     Davidson diagonalization with overlap
     ethr =  4.00E-08,  avg # of iterations =  1.1

     total cpu time spent up to now is       97.5 secs

     total energy              =    -253.16373784 Ry
     Harris-Foulkes estimate   =    -253.14232448 Ry
     estimated scf accuracy    <       0.00000967 Ry

     iteration #  2     ecut=    30.00 Ry     beta= 0.70
     Davidson diagonalization with overlap
     ethr =  4.03E-08,  avg # of iterations =  2.9

     total cpu time spent up to now is       98.6 secs

     total energy              =    -253.16374687 Ry
     Harris-Foulkes estimate   =    -253.16376030 Ry
     estimated scf accuracy    <       0.00003655 Ry

     iteration #  3     ecut=    30.00 Ry     beta= 0.70
     Davidson diagonalization with overlap
     ethr =  4.03E-08,  avg # of iterations =  2.0

     total cpu time spent up to now is       99.6 secs

     total energy              =    -253.16374795 Ry
     Harris-Foulkes estimate   =    -253.16375025 Ry
     estimated scf accuracy    <       0.00000383 Ry

     iteration #  4     ecut=    30.00 Ry     beta= 0.70
     Davidson diagonalization with overlap
     ethr =  1.60E-08,  avg # of iterations =  2.0

     total cpu time spent up to now is      100.6 secs

     total energy              =    -253.16374901 Ry
     Harris-Foulkes estimate   =    -253.16374918 Ry
     estimated scf accuracy    <       0.00000027 Ry

     iteration #  5     ecut=    30.00 Ry     beta= 0.70
     Davidson diagonalization with overlap
     ethr =  1.12E-09,  avg # of iterations =  2.0

     total cpu time spent up to now is      101.7 secs

     total energy              =    -253.16374910 Ry
     Harris-Foulkes estimate   =    -253.16374911 Ry
     estimated scf accuracy    <       0.00000003 Ry

     iteration #  6     ecut=    30.00 Ry     beta= 0.70
     Davidson diagonalization with overlap
     ethr =  1.14E-10,  avg # of iterations =  1.4

     total cpu time spent up to now is      102.5 secs

     total energy              =    -253.16374910 Ry
     Harris-Foulkes estimate   =    -253.16374910 Ry
     estimated scf accuracy    <          2.6E-09 Ry

     iteration #  7     ecut=    30.00 Ry     beta= 0.70
     Davidson diagonalization with overlap
     ethr =  1.09E-11,  avg # of iterations =  2.0

     total cpu time spent up to now is      103.5 secs

     total energy              =    -253.16374910 Ry
     Harris-Foulkes estimate   =    -253.16374910 Ry
     estimated scf accuracy    <          2.6E-10 Ry

     iteration #  8     ecut=    30.00 Ry     beta= 0.70
     Davidson diagonalization with overlap
     ethr =  1.06E-12,  avg # of iterations =  2.0

     total cpu time spent up to now is      104.5 secs

     total energy              =    -253.16374910 Ry
     Harris-Foulkes estimate   =    -253.16374910 Ry
     estimated scf accuracy    <          7.9E-12 Ry

     iteration #  9     ecut=    30.00 Ry     beta= 0.70
     Davidson diagonalization with overlap
     ethr =  1.00E-13,  avg # of iterations =  1.4

     total cpu time spent up to now is      105.3 secs

     End of self-consistent calculation

          k = 0.0759 0.1314 0.0722 (   427 PWs)   bands (ev):

     1.4922   3.1083   3.5966   3.7492   3.7701   3.7935   3.9024   3.9053
     3.9614   4.1240   4.3519   8.1414  12.4251  21.6238  22.0059  27.4259

          k = 0.0759 0.1314 0.2167 (   438 PWs)   bands (ev):

     2.3908   3.1708   3.5883   3.5922   3.6698   3.7511   3.8264   3.9303
     4.1417   4.2169   4.3042   5.3295  17.3032  22.6409  22.6419  23.4559

          k = 0.0759 0.3066 0.0722 (   433 PWs)   bands (ev):

     2.8372   3.2355   3.4709   3.5754   3.7254   3.8170   3.9876   4.0884
     4.1854   4.3413   4.5295  10.0765  14.0768  15.1841  19.2155  21.1753

          k = 0.0759 0.3066 0.2167 (   433 PWs)   bands (ev):

     3.0566   3.3074   3.4021   3.5921   3.8047   3.8500   3.9762   4.1066
     4.2436   4.3118   5.1227   7.0529  16.1831  17.8746  19.3189  20.2715

          k = 0.0759 0.4819 0.0722 (   440 PWs)   bands (ev):

     3.0505   3.1073   3.3462   3.6391   3.6870   3.9390   4.1461   4.3350
     4.3731   4.3853   7.3615   9.5798  13.3881  15.3424  17.7440  17.9944

          k = 0.0759 0.4819 0.2167 (   434 PWs)   bands (ev):

     2.9908   3.1635   3.3466   3.4815   3.8034   4.1161   4.1439   4.2968
     4.3490   4.4106   8.2141   9.6661  11.3439  12.7919  19.0977  21.0461

          k = 0.0759-0.3942 0.0722 (   436 PWs)   bands (ev):

     3.0532   3.1656   3.3814   3.6187   3.7239   3.8788   4.0788   4.2371
     4.3123   4.3742   5.6025  11.3325  12.4496  15.3549  18.3932  18.5005

          k = 0.0759-0.3942 0.2167 (   431 PWs)   bands (ev):

     3.0302   3.2150   3.3674   3.5241   3.8184   4.0204   4.0954   4.2174
     4.3030   4.3824   6.4483   8.4267  13.3426  15.2394  19.4946  20.3755

          k = 0.0759-0.2190 0.0722 (   432 PWs)   bands (ev):

     2.1492   3.2295   3.5380   3.6342   3.7369   3.8033   3.9402   3.9759
     4.0707   4.1019   4.3721   8.9588  13.0815  18.3612  20.3798  24.2662

          k = 0.0759-0.2190 0.2167 (   434 PWs)   bands (ev):

     2.8548   3.3724   3.4432   3.6043   3.6527   3.8061   3.8567   3.9635
     4.1739   4.2591   4.4771   6.0261  17.9259  19.3541  21.3511  21.4503

          k = 0.0759-0.0438 0.0722 (   422 PWs)   bands (ev):

     1.1364   3.0095   3.6541   3.7357   3.7621   3.7976   3.8469   3.9326
     3.9364   4.2399   4.3395   7.6857  12.1061  23.4912  24.7109  26.6542

          k = 0.0759-0.0438 0.2167 (   438 PWs)   bands (ev):

     2.0807   3.0069   3.6282   3.6790   3.6945   3.6960   3.7560   4.0774
     4.1251   4.1761   4.2781   4.9218  16.9777  22.7229  24.5025  25.7386

          k = 0.2276 0.3942 0.0722 (   434 PWs)   bands (ev):

     3.2352   3.2986   3.4055   3.5026   3.7902   3.8032   3.9340   4.1714
     4.3355   4.3865   6.7268  12.4270  13.2542  13.5562  16.3968  19.0180

          k = 0.2276 0.3942 0.2167 (   436 PWs)   bands (ev):

     3.2320   3.2558   3.5016   3.6255   3.6832   3.8960   3.9248   4.0615
     4.3182   4.4175   7.6350   9.5904  14.1288  14.5985  16.1072  16.5085

          k = 0.2276 0.5695 0.0722 (   438 PWs)   bands (ev):

     3.1986   3.3317   3.3813   3.5831   3.7008   3.8171   3.9905   4.2586
     4.3275   4.3693   8.5265  10.6920  12.9184  14.4826  16.5009  18.1601

          k = 0.2276 0.5695 0.2167 (   437 PWs)   bands (ev):

     3.2260   3.3265   3.4956   3.5358   3.7088   3.8818   4.0056   4.0764
     4.3181   4.3851   9.4484  11.0518  12.1741  13.7643  14.0622  15.9846

          k = 0.2276-0.3066 0.0722 (   429 PWs)   bands (ev):

     3.1641   3.2843   3.3855   3.5159   3.7461   3.8647   3.9067   4.1135
     4.3208   4.3454   5.3658  11.1587  14.0484  15.1104  16.1831  20.0846

          k = 0.2276-0.3066 0.2167 (   433 PWs)   bands (ev):

     3.1589   3.2732   3.4512   3.6450   3.7209   3.8528   3.9427   4.0820
     4.3095   4.3866   6.1708   8.1386  15.0755  16.9793  17.2186  18.9746

          k = 0.2276-0.1314 0.0722 (   435 PWs)   bands (ev):

     2.4180   3.2133   3.5720   3.5956   3.7528   3.7627   4.0384   4.0457
     4.0806   4.1109   4.3765   9.3372  13.4109  16.6238  21.5735  22.5733

          k = 0.2276-0.1314 0.2167 (   432 PWs)   bands (ev):

     2.9409   3.3208   3.4254   3.5870   3.8012   3.8369   3.9676   3.9976
[...]

     3.0497   3.1299   3.3873   3.7098   3.7281   3.9551   4.2492   4.3397
     4.3843   4.4471   6.2903  10.6411  12.4787  15.7078  17.5695  19.8358

          k = 0.3795-0.2191 0.2172 (   438 PWs)   bands (ev):

     3.0014   3.1753   3.3883   3.5074   3.8929   4.1697   4.1707   4.3775
     4.4098   4.4175   7.1541   9.0521  12.0521  13.8856  21.0772  21.2168

     the Fermi energy is    11.5332 ev

!    total energy              =    -253.16375795 Ry
     Harris-Foulkes estimate   =    -253.16375795 Ry
     estimated scf accuracy    <          5.7E-13 Ry

     The total energy is the sum of the following terms:

     one-electron contribution =    -129.59050723 Ry
     hartree contribution      =      92.83294620 Ry
     xc contribution           =     -37.04066194 Ry
     ewald contribution        =    -179.36571392 Ry
     smearing contrib. (-TS)   =       0.00017894 Ry

     convergence has been achieved in  15 iterations

     Forces acting on atoms (cartesian axes, Ry/au):

     atom    1 type  1   force =     0.00000000    0.00000000   -0.00000000
     atom    2 type  1   force =    -0.00000000   -0.00000000    0.00000000

     Total force =     0.000000     Total SCF correction =     0.000000


     Computing stress (Cartesian axis) and pressure

          total   stress  (Ry/bohr**3)                   (kbar)     P=   -0.06
  -0.00000073   0.00000000  -0.00000000         -0.11      0.00     -0.00
   0.00000000  -0.00000073   0.00000000          0.00     -0.11      0.00
   0.00000000   0.00000000   0.00000015          0.00      0.00      0.02


     bfgs converged in   8 scf cycles and   7 bfgs steps
     (criteria: energy <  1.0E-04 Ry, force <  1.0E-03Ry/Bohr, cell <  5.0E-01kbar)

     End of BFGS Geometry Optimization

     Final enthalpy =    -253.1637579522 Ry
Begin final coordinates
     new unit-cell volume =    199.33721 a.u.^3 (    29.53873 Ang^3 )
     density =      0.11243 g/cm^3

CELL_PARAMETERS (alat=  4.80000000)
   1.097858073  -0.000000000  -0.000000000
  -0.548929037   0.950772981  -0.000000000
   0.000000000   0.000000000   1.726798372

ATOMIC_POSITIONS (crystal)
Zn       0.000000000   0.000000000   0.000000000
Zn       0.666666667   0.333333333   0.500000000
End final coordinates



     Writing output data file Zn.save/

     A final scf calculation at the relaxed structure.
     The G-vectors are recalculated for the final unit cell
     Results may differ from those at the preceding step.

     G-vector sticks info
     --------------------
     sticks:   dense  smooth     PW     G-vecs:    dense   smooth      PW
     Sum         451     235     85                12479     4415     953



     bravais-lattice index     =            4
     lattice parameter (alat)  =       4.8000  a.u.
     unit-cell volume          =     199.3372 (a.u.)^3
     number of atoms/cell      =            2
     number of atomic types    =            1
     number of electrons       =        24.00
     number of Kohn-Sham states=           16
     kinetic-energy cutoff     =      30.0000  Ry
     charge density cutoff     =     240.0000  Ry
     convergence threshold     =      1.0E-12
     mixing beta               =       0.7000
     number of iterations used =            8  plain     mixing
     Exchange-correlation      =  SLA  PW   PBE  PBE ( 1  4  3  4 0 0)

     celldm(1)=   4.800000  celldm(2)=   0.000000  celldm(3)=   1.633000
     celldm(4)=   0.000000  celldm(5)=   0.000000  celldm(6)=   0.000000

     crystal axes: (cart. coord. in units of alat)
               a(1) = (   1.097858  -0.000000  -0.000000 )  
               a(2) = (  -0.548929   0.950773  -0.000000 )  
               a(3) = (   0.000000   0.000000   1.726798 )  

     reciprocal axes: (cart. coord. in units 2 pi/alat)
               b(1) = (  0.910865  0.525888 -0.000000 )  
               b(2) = (  0.000000  1.051776 -0.000000 )  
               b(3) = (  0.000000  0.000000  0.579106 )  


     PseudoPot. # 1 for Zn read from file:
     /home/matic/test.QE-2019/pseudo/Zn.pbe-van.UPF
     MD5 check sum: 8a117cd81793830d6ad9bd6443d05479
     Pseudo is Ultrasoft, Zval = 12.0
     Generated by new atomic code, or converted to UPF format
     Using radial grid of  869 points,  6 beta functions with: 
                l(1) =   0
                l(2) =   0
                l(3) =   1
                l(4) =   1
                l(5) =   2
                l(6) =   2
     Q(r) pseudized with  8 coefficients,  rinner =    0.800   0.800   0.800
                                                       0.800   0.800

     atomic species   valence    mass     pseudopotential
        Zn            12.00     1.00000     Zn( 1.00)

     24 Sym. Ops., with inversion, found (12 have fractional translation)



   Cartesian axes

     site n.     atom                  positions (alat units)
         1           Zn  tau(   1) = (   0.0000000   0.0000000  -0.0000000  )
         2           Zn  tau(   2) = (   0.5489290   0.3169243   0.8633992  )

     number of k points=    24  Methfessel-Paxton smearing, width (Ry)=  0.0300
                       cart. coord. in units 2pi/alat
        k(    1) = (   0.0759054   0.1314720   0.0723883), wk =   0.0555556
        k(    2) = (   0.0759054   0.1314720   0.2171649), wk =   0.0555556
        k(    3) = (   0.0759054   0.3067679   0.0723883), wk =   0.1111111
        k(    4) = (   0.0759054   0.3067679   0.2171649), wk =   0.1111111
        k(    5) = (   0.0759054   0.4820639   0.0723883), wk =   0.1111111
        k(    6) = (   0.0759054   0.4820639   0.2171649), wk =   0.1111111
        k(    7) = (   0.0759054  -0.3944159   0.0723883), wk =   0.1111111
        k(    8) = (   0.0759054  -0.3944159   0.2171649), wk =   0.1111111
        k(    9) = (   0.0759054  -0.2191200   0.0723883), wk =   0.1111111
        k(   10) = (   0.0759054  -0.2191200   0.2171649), wk =   0.1111111
        k(   11) = (   0.0759054  -0.0438240   0.0723883), wk =   0.0555556
        k(   12) = (   0.0759054  -0.0438240   0.2171649), wk =   0.0555556
        k(   13) = (   0.2277161   0.3944159   0.0723883), wk =   0.0555556
        k(   14) = (   0.2277161   0.3944159   0.2171649), wk =   0.0555556
        k(   15) = (   0.2277161   0.5697119   0.0723883), wk =   0.1111111
        k(   16) = (   0.2277161   0.5697119   0.2171649), wk =   0.1111111
        k(   17) = (   0.2277161  -0.3067679   0.0723883), wk =   0.1111111
        k(   18) = (   0.2277161  -0.3067679   0.2171649), wk =   0.1111111
        k(   19) = (   0.2277161  -0.1314720   0.0723883), wk =   0.0555556
        k(   20) = (   0.2277161  -0.1314720   0.2171649), wk =   0.0555556
        k(   21) = (   0.3795269   0.6573599   0.0723883), wk =   0.0555556
        k(   22) = (   0.3795269   0.6573599   0.2171649), wk =   0.0555556
        k(   23) = (   0.3795269  -0.2191200   0.0723883), wk =   0.0555556
        k(   24) = (   0.3795269  -0.2191200   0.2171649), wk =   0.0555556

     Dense  grid:    12479 G-vectors     FFT dimensions: (  25,  25,  45)

     Smooth grid:     4415 G-vectors     FFT dimensions: (  20,  20,  30)

     Estimated max dynamical RAM per process >      50.99 MB

     Initial potential from superposition of free atoms

     starting charge   23.99970, renormalised to   24.00000
     Starting wfcs are   12 randomized atomic wfcs +    4 random wfcs

     total cpu time spent up to now is      136.7 secs

     Self-consistent Calculation

     iteration #  1     ecut=    30.00 Ry     beta= 0.70
     Davidson diagonalization with overlap
     c_bands:  1 eigenvalues not converged
     ethr =  1.00E-06,  avg # of iterations =  9.4

     total cpu time spent up to now is      138.5 secs

     total energy              =    -253.13510886 Ry
     Harris-Foulkes estimate   =    -253.18078914 Ry
     estimated scf accuracy    <       0.06455800 Ry

     iteration #  2     ecut=    30.00 Ry     beta= 0.70
     Davidson diagonalization with overlap
     ethr =  2.69E-04,  avg # of iterations =  2.0

     total cpu time spent up to now is      139.4 secs

     total energy              =    -253.15229103 Ry
     Harris-Foulkes estimate   =    -253.18334913 Ry
     estimated scf accuracy    <       0.06050801 Ry

     iteration #  3     ecut=    30.00 Ry     beta= 0.70
     Davidson diagonalization with overlap
     ethr =  2.52E-04,  avg # of iterations =  2.0

     total cpu time spent up to now is      140.3 secs

     total energy              =    -253.16416568 Ry
     Harris-Foulkes estimate   =    -253.16417890 Ry
     estimated scf accuracy    <       0.00031140 Ry

     iteration #  4     ecut=    30.00 Ry     beta= 0.70
     Davidson diagonalization with overlap
     ethr =  1.30E-06,  avg # of iterations =  1.7

     total cpu time spent up to now is      141.0 secs

     total energy              =    -253.16417212 Ry
     Harris-Foulkes estimate   =    -253.16417958 Ry
     estimated scf accuracy    <       0.00001433 Ry

     iteration #  5     ecut=    30.00 Ry     beta= 0.70
     Davidson diagonalization with overlap
     ethr =  5.97E-08,  avg # of iterations =  2.0

     total cpu time spent up to now is      141.9 secs

     total energy              =    -253.16417669 Ry
     Harris-Foulkes estimate   =    -253.16417675 Ry
     estimated scf accuracy    <       0.00000014 Ry

     iteration #  6     ecut=    30.00 Ry     beta= 0.70
     Davidson diagonalization with overlap
     ethr =  5.77E-10,  avg # of iterations =  2.6

     total cpu time spent up to now is      142.8 secs

     total energy              =    -253.16417675 Ry
     Harris-Foulkes estimate   =    -253.16417676 Ry
     estimated scf accuracy    <          6.5E-09 Ry

     iteration #  7     ecut=    30.00 Ry     beta= 0.70
     Davidson diagonalization with overlap
     ethr =  2.72E-11,  avg # of iterations =  2.8

     total cpu time spent up to now is      143.7 secs

     total energy              =    -253.16417676 Ry
     Harris-Foulkes estimate   =    -253.16417676 Ry
     estimated scf accuracy    <          4.8E-09 Ry

     iteration #  8     ecut=    30.00 Ry     beta= 0.70
     Davidson diagonalization with overlap
     ethr =  1.99E-11,  avg # of iterations =  1.8

     total cpu time spent up to now is      144.4 secs

     total energy              =    -253.16417676 Ry
     Harris-Foulkes estimate   =    -253.16417676 Ry
     estimated scf accuracy    <          3.1E-10 Ry

     iteration #  9     ecut=    30.00 Ry     beta= 0.70
     Davidson diagonalization with overlap
     ethr =  1.30E-12,  avg # of iterations =  2.0

     total cpu time spent up to now is      145.2 secs

     total energy              =    -253.16417676 Ry
     Harris-Foulkes estimate   =    -253.16417676 Ry
     estimated scf accuracy    <          1.9E-11 Ry

     iteration # 10     ecut=    30.00 Ry     beta= 0.70
     Davidson diagonalization with overlap
     ethr =  1.00E-13,  avg # of iterations =  2.0

     total cpu time spent up to now is      146.0 secs

     End of self-consistent calculation

          k = 0.0759 0.1315 0.0724 (   563 PWs)   bands (ev):

     1.5164   3.1466   3.6388   3.7915   3.8139   3.8364   3.9466   3.9489
     4.0065   4.1699   4.3997   8.1961  12.5075  21.6705  22.0516  27.5008

          k = 0.0759 0.1315 0.2172 (   554 PWs)   bands (ev):

     2.4201   3.2094   3.6291   3.6341   3.7134   3.7925   3.8687   3.9751
     4.1875   4.2631   4.3514   5.3756  17.4049  22.6928  22.7238  23.5508

          k = 0.0759 0.3068 0.0724 (   560 PWs)   bands (ev):

     2.8668   3.2744   3.5108   3.6158   3.7677   3.8603   4.0321   4.1346
     4.2306   4.3884   4.5733  10.1360  14.1563  15.2268  19.2587  21.2463

          k = 0.0759 0.3068 0.2172 (   555 PWs)   bands (ev):

     3.0919   3.3466   3.4429   3.6355   3.8466   3.8919   4.0202   4.1512
     4.2898   4.3589   5.1633   7.0998  16.2302  17.9387  19.4125  20.3205

          k = 0.0759 0.4821 0.0724 (   547 PWs)   bands (ev):

     3.0875   3.1463   3.3863   3.6798   3.7290   3.9843   4.1907   4.3816
     4.4196   4.4336   7.3966   9.6166  13.4516  15.4090  17.8280  18.0358

          k = 0.0759 0.4821 0.2172 (   551 PWs)   bands (ev):

     3.0277   3.2027   3.3870   3.5247   3.8450   4.1612   4.1885   4.3424
     4.3956   4.4580   8.2516   9.7052  11.3958  12.8457  19.1455  21.1081

          k = 0.0759-0.3944 0.0724 (   551 PWs)   bands (ev):

     3.0890   3.2046   3.4211   3.6596   3.7651   3.9235   4.1234   4.2833
     4.3582   4.4226   5.6393  11.3871  12.4958  15.4333  18.4396  18.5678

          k = 0.0759-0.3944 0.2172 (   550 PWs)   bands (ev):

     3.0668   3.2540   3.4080   3.5674   3.8599   4.0640   4.1398   4.2635
     4.3494   4.4295   6.4863   8.4729  13.3885  15.2943  19.5432  20.4725

          k = 0.0759-0.2191 0.0724 (   561 PWs)   bands (ev):

     2.1743   3.2680   3.5794   3.6751   3.7802   3.8459   3.9852   4.0210
     4.1158   4.1471   4.4202   9.0161  13.1630  18.4052  20.4243  24.3385

          k = 0.0759-0.2191 0.2172 (   557 PWs)   bands (ev):

     2.8859   3.4124   3.4830   3.6460   3.6957   3.8485   3.9003   4.0062
     4.2199   4.3061   4.5226   6.0729  18.0263  19.4034  21.4053  21.5070

          k = 0.0759-0.0438 0.0724 (   563 PWs)   bands (ev):

     1.1603   3.0476   3.6966   3.7777   3.8070   3.8412   3.8909   3.9753
     3.9798   4.2867   4.3870   7.7386  12.1891  23.5390  24.7588  26.7059

          k = 0.0759-0.0438 0.2172 (   553 PWs)   bands (ev):

     2.1097   3.0449   3.6698   3.7208   3.7357   3.7395   3.7983   4.1228
     4.1707   4.2218   4.3254   4.9668  17.0796  22.8478  24.5564  25.7920

          k = 0.2277 0.3944 0.0724 (   546 PWs)   bands (ev):

     3.2734   3.3360   3.4443   3.5427   3.8318   3.8465   3.9795   4.2188
     4.3842   4.4332   6.7631  12.4795  13.3044  13.5952  16.4750  19.0864

          k = 0.2277 0.3944 0.2172 (   551 PWs)   bands (ev):

     3.2705   3.2940   3.5428   3.6667   3.7260   3.9398   3.9688   4.1066
     4.3650   4.4646   7.6743   9.6377  14.1757  14.6430  16.1630  16.5633

          k = 0.2277 0.5697 0.0724 (   545 PWs)   bands (ev):

     3.2363   3.3704   3.4196   3.6240   3.7429   3.8599   4.0364   4.3061
     4.3763   4.4167   8.5628  10.7292  12.9568  14.5475  16.5677  18.2331

          k = 0.2277 0.5697 0.2172 (   550 PWs)   bands (ev):

     3.2644   3.3657   3.5368   3.5764   3.7518   3.9251   4.0502   4.1219
     4.3649   4.4322   9.4881  11.0933  12.2252  13.8147  14.1110  16.0393

          k = 0.2277-0.3068 0.0724 (   550 PWs)   bands (ev):

     3.1990   3.3229   3.4244   3.5560   3.7880   3.9083   3.9510   4.1604
     4.3668   4.3937   5.4044  11.2191  14.0896  15.1902  16.2246  20.1551

          k = 0.2277-0.3068 0.2172 (   552 PWs)   bands (ev):

     3.1960   3.3118   3.4924   3.6883   3.7626   3.8955   3.9869   4.1269
     4.3563   4.4335   6.2100   8.1857  15.1219  17.0360  17.2655  19.0378

          k = 0.2277-0.1315 0.0724 (   558 PWs)   bands (ev):

     2.4443   3.2522   3.6128   3.6364   3.7975   3.8033   4.0833   4.0902
     4.1256   4.1573   4.4247   9.3954  13.4918  16.6668  21.6170  22.6450

          k = 0.2277-0.1315 0.2172 (   560 PWs)   bands (ev):

     2.9738   3.3607   3.4655   3.6301   3.8430   3.8782   4.0108   4.0419
     4.2020   4.3383   4.6347   6.4032  17.6643  18.2246  19.9131  22.7881

          k = 0.3795 0.6574 0.0724 (   546 PWs)   bands (ev):

     3.1618   3.2468   3.4098   3.6792   3.6883   4.0122   4.0319   4.3719
     4.3878   4.4288   8.8186   8.9879  14.6466  15.0650  15.4198  18.8085

          k = 0.3795 0.6574 0.2172 (   556 PWs)   bands (ev):

     3.1271   3.3164   3.4119   3.6011   3.7344   4.0926   4.1520   4.1985
     4.3794   4.4440   9.6646   9.7352  12.0042  12.3506  16.4858  18.4731

          k = 0.3795-0.2191 0.0724 (   550 PWs)   bands (ev):

     3.0512   3.1315   3.3888   3.7114   3.7299   3.9568   4.2512   4.3421
     4.3867   4.4491   6.2906  10.6411  12.4788  15.7077  17.5696  19.8354

          k = 0.3795-0.2191 0.2172 (   551 PWs)   bands (ev):

     3.0029   3.1769   3.3900   3.5092   3.8947   4.1716   4.1726   4.3800
     4.4122   4.4195   7.1542   9.0521  12.0523  13.8857  21.0769  21.2167

     the Fermi energy is    11.5333 ev

!    total energy              =    -253.16417676 Ry
     Harris-Foulkes estimate   =    -253.16417676 Ry
     estimated scf accuracy    <          9.9E-13 Ry

     The total energy is the sum of the following terms:

     one-electron contribution =    -129.59353645 Ry
     hartree contribution      =      92.83630153 Ry
     xc contribution           =     -37.04140770 Ry
     ewald contribution        =    -179.36571316 Ry
     smearing contrib. (-TS)   =       0.00017902 Ry

     convergence has been achieved in  10 iterations

     Forces acting on atoms (cartesian axes, Ry/au):

     atom    1 type  1   force =     0.00000000    0.00000000   -0.00000000
     atom    2 type  1   force =    -0.00000000   -0.00000000    0.00000000

     Total force =     0.000000     Total SCF correction =     0.000000


     Computing stress (Cartesian axis) and pressure

          total   stress  (Ry/bohr**3)                   (kbar)     P=    4.37
   0.00003809  -0.00000000   0.00000000          5.60     -0.00      0.00
  -0.00000000   0.00003809  -0.00000000         -0.00      5.60     -0.00
  -0.00000000  -0.00000000   0.00001285         -0.00     -0.00      1.89


     Writing output data file Zn.save/

     init_run     :      2.61s CPU      2.02s WALL (       2 calls)
     electrons    :    257.43s CPU    132.21s WALL (       9 calls)
     update_pot   :      3.67s CPU      3.02s WALL (       7 calls)
     forces       :      3.98s CPU      2.24s WALL (       9 calls)
     stress       :     13.00s CPU      7.02s WALL (       9 calls)

     Called by init_run:
     wfcinit      :      0.78s CPU      0.46s WALL (       2 calls)
     potinit      :      0.19s CPU      0.19s WALL (       2 calls)
     hinit0       :      1.52s CPU      1.27s WALL (       2 calls)

     Called by electrons:
     c_bands      :    195.50s CPU    100.72s WALL (     130 calls)
     sum_band     :     44.18s CPU     22.55s WALL (     130 calls)
     v_of_rho     :      6.82s CPU      3.63s WALL (     137 calls)
     newd         :     10.11s CPU      5.02s WALL (     137 calls)
     mix_rho      :      0.82s CPU      0.44s WALL (     130 calls)

     Called by c_bands:
     init_us_2    :      4.14s CPU      2.10s WALL (    6720 calls)
     cegterg      :    181.00s CPU     93.38s WALL (    3120 calls)

     Called by sum_band:
     sum_band:bec :      0.10s CPU      0.05s WALL (    3120 calls)
     addusdens    :     13.44s CPU      6.11s WALL (     130 calls)

     Called by *egterg:
     h_psi        :    149.60s CPU     77.40s WALL (    9727 calls)
     s_psi        :      2.32s CPU      1.35s WALL (    9727 calls)
     g_psi        :      1.87s CPU      0.90s WALL (    6559 calls)
     cdiaghg      :     16.45s CPU      8.44s WALL (    9463 calls)

     Called by h_psi:
     h_psi:pot    :    149.05s CPU     77.12s WALL (    9727 calls)
     h_psi:calbec :      3.69s CPU      1.92s WALL (    9727 calls)
     vloc_psi     :    141.28s CPU     72.55s WALL (    9727 calls)
     add_vuspsi   :      3.96s CPU      2.60s WALL (    9727 calls)

     General routines
     calbec       :      5.20s CPU      2.73s WALL (   13927 calls)
     fft          :      3.02s CPU      1.63s WALL (    1853 calls)
     ffts         :      0.15s CPU      0.09s WALL (     267 calls)
     fftw         :    151.74s CPU     78.53s WALL (  306184 calls)
     interpolate  :      0.32s CPU      0.17s WALL (     137 calls)

     Parallel routines

     PWSCF        :  4m41.30s CPU     2m26.92s WALL


   This run was terminated on:  16:36:45  14Sep2019            

=------------------------------------------------------------------------------=
   JOB DONE.
=------------------------------------------------------------------------------=
