
     Program PWSCF v.6.4.1 starts on  3Sep2019 at 18:36:31 

     This program is part of the open-source Quantum ESPRESSO suite
     for quantum simulation of materials; please cite
         "P. Giannozzi et al., J. Phys.:Condens. Matter 21 395502 (2009);
         "P. Giannozzi et al., J. Phys.:Condens. Matter 29 465901 (2017);
          URL http://www.quantum-espresso.org", 
     in publications or presentations arising from this work. More details at
     http://www.quantum-espresso.org/quote

     Parallel version (MPI), running on     2 processors

     MPI processes distributed on     1 nodes
     R & G space division:  proc/nbgrp/npool/nimage =       2
     Waiting for input...
     Reading input from standard input

     Current dimensions of program PWSCF are:
     Max number of different atomic species (ntypx) = 10
     Max number of k-points (npk) =  40000
     Max angular momentum in pseudopotentials (lmaxx) =  3

     IMPORTANT: XC functional enforced from input :
     Exchange-correlation      = VDW-DF ( 1  4  4  0 1 0)
     Any further DFT definition will be discarded
     Please, verify this is what you really want

               file C.pbe-rrkjus.UPF: wavefunction(s)  2S 2P renormalized

     Subspace diagonalization in iterative solution of the eigenvalue problem:
     a serial algorithm will be used

 
     Parallelization info
     --------------------
     sticks:   dense  smooth     PW     G-vecs:    dense   smooth      PW
     Min         180      93     30                 7166     2525     520
     Max         181      94     31                 7173     2528     525
     Sum         361     187     61                14339     5053    1045
 


     bravais-lattice index     =            4
     lattice parameter (alat)  =       4.6601  a.u.
     unit-cell volume          =     227.8448 (a.u.)^3
     number of atoms/cell      =            4
     number of atomic types    =            1
     number of electrons       =        16.00
     number of Kohn-Sham states=           12
     kinetic-energy cutoff     =      30.0000  Ry
     charge density cutoff     =     240.0000  Ry
     convergence threshold     =      1.0E-09
     mixing beta               =       0.3000
     number of iterations used =            8  plain     mixing
     Exchange-correlation      = VDW-DF ( 1  4  4  0 1 0)
     nstep                     =           50


     celldm(1)=   4.660065  celldm(2)=   0.000000  celldm(3)=   2.599757
     celldm(4)=   0.000000  celldm(5)=   0.000000  celldm(6)=   0.000000

     crystal axes: (cart. coord. in units of alat)
               a(1) = (   1.000000   0.000000   0.000000 )  
               a(2) = (  -0.500000   0.866025   0.000000 )  
               a(3) = (   0.000000   0.000000   2.599757 )  

     reciprocal axes: (cart. coord. in units 2 pi/alat)
               b(1) = (  1.000000  0.577350  0.000000 )  
               b(2) = (  0.000000  1.154701  0.000000 )  
               b(3) = (  0.000000  0.000000  0.384651 )  


     PseudoPot. # 1 for C  read from file:
     ../../../pseudo/C.pbe-rrkjus.UPF
     MD5 check sum: 00fb224312de0c5b6853bd333518df6f
     Pseudo is Ultrasoft, Zval =  4.0
     Generated by new atomic code, or converted to UPF format
     Using radial grid of  627 points,  4 beta functions with: 
                l(1) =   0
                l(2) =   0
                l(3) =   1
                l(4) =   1
     Q(r) pseudized with 0 coefficients 


     vdW kernel table read from file vdW_kernel_table
     MD5 check sum: 13d05b472ba19330c194d8f4c88b635e

     atomic species   valence    mass     pseudopotential
        C              4.00    12.01100     C ( 1.00)

     24 Sym. Ops., with inversion, found (12 have fractional translation)


                                    s                        frac. trans.

      isym =  1     identity                                     

 cryst.   s( 1) = (     1          0          0      )
                  (     0          1          0      )
                  (     0          0          1      )

 cart.    s( 1) = (  1.0000000  0.0000000  0.0000000 )
                  (  0.0000000  1.0000000  0.0000000 )
                  (  0.0000000  0.0000000  1.0000000 )


      isym =  2     180 deg rotation - cart. axis [0,0,1]        

 cryst.   s( 2) = (    -1          0          0      )    f =( -0.0000000 )
                  (     0         -1          0      )       ( -0.0000000 )
                  (     0          0          1      )       (  0.5000000 )

 cart.    s( 2) = ( -1.0000000  0.0000000  0.0000000 )    f =(  0.0000000 )
                  (  0.0000000 -1.0000000  0.0000000 )       ( -0.0000000 )
                  (  0.0000000  0.0000000  1.0000000 )       (  1.2998783 )


      isym =  3     180 deg rotation - cart. axis [0,1,0]        

 cryst.   s( 3) = (    -1          0          0      )    f =( -0.0000000 )
                  (     1          1          0      )       (  0.0000000 )
                  (     0          0         -1      )       (  0.5000000 )

 cart.    s( 3) = ( -1.0000000  0.0000000  0.0000000 )    f =( -0.0000000 )
                  (  0.0000000  1.0000000  0.0000000 )       (  0.0000000 )
                  (  0.0000000  0.0000000 -1.0000000 )       (  1.2998783 )


      isym =  4     180 deg rotation - cart. axis [1,0,0]        

 cryst.   s( 4) = (     1          0          0      )
                  (    -1         -1          0      )
                  (     0          0         -1      )

 cart.    s( 4) = (  1.0000000  0.0000000  0.0000000 )
                  (  0.0000000 -1.0000000  0.0000000 )
                  (  0.0000000  0.0000000 -1.0000000 )


      isym =  5      60 deg rotation - cryst. axis [0,0,1]       

 cryst.   s( 5) = (     1          1          0      )    f =(  0.0000000 )
                  (    -1          0          0      )       (  0.0000000 )
                  (     0          0          1      )       (  0.5000000 )

 cart.    s( 5) = (  0.5000000 -0.8660254  0.0000000 )    f =(  0.0000000 )
                  (  0.8660254  0.5000000  0.0000000 )       (  0.0000000 )
                  (  0.0000000  0.0000000  1.0000000 )       (  1.2998783 )


      isym =  6      60 deg rotation - cryst. axis [0,0,-1]      

 cryst.   s( 6) = (     0         -1          0      )    f =(  0.0000000 )
                  (     1          1          0      )       ( -0.0000000 )
                  (     0          0          1      )       (  0.5000000 )

 cart.    s( 6) = (  0.5000000  0.8660254  0.0000000 )    f =(  0.0000000 )
                  ( -0.8660254  0.5000000  0.0000000 )       ( -0.0000000 )
                  (  0.0000000  0.0000000  1.0000000 )       (  1.2998783 )


      isym =  7     120 deg rotation - cryst. axis [0,0,1]       

 cryst.   s( 7) = (     0          1          0      )
                  (    -1         -1          0      )
                  (     0          0          1      )

 cart.    s( 7) = ( -0.5000000 -0.8660254  0.0000000 )
                  (  0.8660254 -0.5000000  0.0000000 )
                  (  0.0000000  0.0000000  1.0000000 )


      isym =  8     120 deg rotation - cryst. axis [0,0,-1]      

 cryst.   s( 8) = (    -1         -1          0      )
                  (     1          0          0      )
                  (     0          0          1      )

 cart.    s( 8) = ( -0.5000000  0.8660254  0.0000000 )
                  ( -0.8660254 -0.5000000  0.0000000 )
                  (  0.0000000  0.0000000  1.0000000 )


      isym =  9     180 deg rotation - cryst. axis [1,-1,0]      

 cryst.   s( 9) = (     0         -1          0      )    f =( -0.0000000 )
                  (    -1          0          0      )       ( -0.0000000 )
                  (     0          0         -1      )       (  0.5000000 )

 cart.    s( 9) = (  0.5000000 -0.8660254  0.0000000 )    f =( -0.0000000 )
                  ( -0.8660254 -0.5000000  0.0000000 )       ( -0.0000000 )
                  (  0.0000000  0.0000000 -1.0000000 )       (  1.2998783 )


      isym = 10     180 deg rotation - cryst. axis [2,1,0]       

 cryst.   s(10) = (     1          1          0      )    f =(  0.0000000 )
                  (     0         -1          0      )       (  0.0000000 )
                  (     0          0         -1      )       (  0.5000000 )

 cart.    s(10) = (  0.5000000  0.8660254  0.0000000 )    f =(  0.0000000 )
                  (  0.8660254 -0.5000000  0.0000000 )       (  0.0000000 )
                  (  0.0000000  0.0000000 -1.0000000 )       (  1.2998783 )


      isym = 11     180 deg rotation - cryst. axis [0,1,0]       

 cryst.   s(11) = (    -1         -1          0      )
                  (     0          1          0      )
                  (     0          0         -1      )

 cart.    s(11) = ( -0.5000000 -0.8660254  0.0000000 )
                  ( -0.8660254  0.5000000  0.0000000 )
                  (  0.0000000  0.0000000 -1.0000000 )


      isym = 12     180 deg rotation - cryst. axis [1,1,0]       

 cryst.   s(12) = (     0          1          0      )
                  (     1          0          0      )
                  (     0          0         -1      )

 cart.    s(12) = ( -0.5000000  0.8660254  0.0000000 )
                  (  0.8660254  0.5000000  0.0000000 )
                  (  0.0000000  0.0000000 -1.0000000 )


      isym = 13     inversion                                    

 cryst.   s(13) = (    -1          0          0      )
                  (     0         -1          0      )
                  (     0          0         -1      )

 cart.    s(13) = ( -1.0000000  0.0000000  0.0000000 )
                  (  0.0000000 -1.0000000  0.0000000 )
                  (  0.0000000  0.0000000 -1.0000000 )


      isym = 14     inv. 180 deg rotation - cart. axis [0,0,1]   

 cryst.   s(14) = (     1          0          0      )    f =(  0.0000000 )
                  (     0          1          0      )       (  0.0000000 )
                  (     0          0         -1      )       (  0.5000000 )

 cart.    s(14) = (  1.0000000  0.0000000  0.0000000 )    f =(  0.0000000 )
                  (  0.0000000  1.0000000  0.0000000 )       (  0.0000000 )
                  (  0.0000000  0.0000000 -1.0000000 )       (  1.2998783 )


      isym = 15     inv. 180 deg rotation - cart. axis [0,1,0]   

 cryst.   s(15) = (     1          0          0      )    f =(  0.0000000 )
                  (    -1         -1          0      )       ( -0.0000000 )
                  (     0          0          1      )       (  0.5000000 )

 cart.    s(15) = (  1.0000000  0.0000000  0.0000000 )    f =(  0.0000000 )
                  (  0.0000000 -1.0000000  0.0000000 )       ( -0.0000000 )
                  (  0.0000000  0.0000000  1.0000000 )       (  1.2998783 )


      isym = 16     inv. 180 deg rotation - cart. axis [1,0,0]   

 cryst.   s(16) = (    -1          0          0      )
                  (     1          1          0      )
                  (     0          0          1      )

 cart.    s(16) = ( -1.0000000  0.0000000  0.0000000 )
                  (  0.0000000  1.0000000  0.0000000 )
                  (  0.0000000  0.0000000  1.0000000 )


      isym = 17     inv.  60 deg rotation - cryst. axis [0,0,1]  

 cryst.   s(17) = (    -1         -1          0      )    f =( -0.0000000 )
                  (     1          0          0      )       ( -0.0000000 )
                  (     0          0         -1      )       (  0.5000000 )

 cart.    s(17) = ( -0.5000000  0.8660254  0.0000000 )    f =(  0.0000000 )
                  ( -0.8660254 -0.5000000  0.0000000 )       ( -0.0000000 )
                  (  0.0000000  0.0000000 -1.0000000 )       (  1.2998783 )


      isym = 18     inv.  60 deg rotation - cryst. axis [0,0,-1] 

 cryst.   s(18) = (     0          1          0      )    f =( -0.0000000 )
                  (    -1         -1          0      )       (  0.0000000 )
                  (     0          0         -1      )       (  0.5000000 )

 cart.    s(18) = ( -0.5000000 -0.8660254  0.0000000 )    f =( -0.0000000 )
                  (  0.8660254 -0.5000000  0.0000000 )       (  0.0000000 )
                  (  0.0000000  0.0000000 -1.0000000 )       (  1.2998783 )


      isym = 19     inv. 120 deg rotation - cryst. axis [0,0,1]  

 cryst.   s(19) = (     0         -1          0      )
                  (     1          1          0      )
                  (     0          0         -1      )

 cart.    s(19) = (  0.5000000  0.8660254  0.0000000 )
                  ( -0.8660254  0.5000000  0.0000000 )
                  (  0.0000000  0.0000000 -1.0000000 )


      isym = 20     inv. 120 deg rotation - cryst. axis [0,0,-1] 

 cryst.   s(20) = (     1          1          0      )
                  (    -1          0          0      )
                  (     0          0         -1      )

 cart.    s(20) = (  0.5000000 -0.8660254  0.0000000 )
                  (  0.8660254  0.5000000  0.0000000 )
                  (  0.0000000  0.0000000 -1.0000000 )


      isym = 21     inv. 180 deg rotation - cryst. axis [1,-1,0] 

 cryst.   s(21) = (     0          1          0      )    f =(  0.0000000 )
                  (     1          0          0      )       (  0.0000000 )
                  (     0          0          1      )       (  0.5000000 )

 cart.    s(21) = ( -0.5000000  0.8660254  0.0000000 )    f =(  0.0000000 )
                  (  0.8660254  0.5000000  0.0000000 )       (  0.0000000 )
                  (  0.0000000  0.0000000  1.0000000 )       (  1.2998783 )


      isym = 22     inv. 180 deg rotation - cryst. axis [2,1,0]  

 cryst.   s(22) = (    -1         -1          0      )    f =( -0.0000000 )
                  (     0          1          0      )       ( -0.0000000 )
                  (     0          0          1      )       (  0.5000000 )

 cart.    s(22) = ( -0.5000000 -0.8660254  0.0000000 )    f =( -0.0000000 )
                  ( -0.8660254  0.5000000  0.0000000 )       ( -0.0000000 )
                  (  0.0000000  0.0000000  1.0000000 )       (  1.2998783 )


      isym = 23     inv. 180 deg rotation - cryst. axis [0,1,0]  

 cryst.   s(23) = (     1          1          0      )
                  (     0         -1          0      )
                  (     0          0          1      )

 cart.    s(23) = (  0.5000000  0.8660254  0.0000000 )
                  (  0.8660254 -0.5000000  0.0000000 )
                  (  0.0000000  0.0000000  1.0000000 )


      isym = 24     inv. 180 deg rotation - cryst. axis [1,1,0]  

 cryst.   s(24) = (     0         -1          0      )
                  (    -1          0          0      )
                  (     0          0          1      )

 cart.    s(24) = (  0.5000000 -0.8660254  0.0000000 )
                  ( -0.8660254 -0.5000000  0.0000000 )
                  (  0.0000000  0.0000000  1.0000000 )


     point group D_6h(6/mmm)
     there are 12 classes
     the character table:

       E     2C6   2C3   C2    3C2'  3C2'' i     2S3   2S6   s_h   3s_d  3s_v 
A_1g   1.00  1.00  1.00  1.00  1.00  1.00  1.00  1.00  1.00  1.00  1.00  1.00
A_2g   1.00  1.00  1.00  1.00 -1.00 -1.00  1.00  1.00  1.00  1.00 -1.00 -1.00
B_1g   1.00 -1.00  1.00 -1.00  1.00 -1.00  1.00 -1.00  1.00 -1.00  1.00 -1.00
B_2g   1.00 -1.00  1.00 -1.00 -1.00  1.00  1.00 -1.00  1.00 -1.00 -1.00  1.00
E_1g   2.00  1.00 -1.00 -2.00  0.00  0.00  2.00  1.00 -1.00 -2.00  0.00  0.00
E_2g   2.00 -1.00 -1.00  2.00  0.00  0.00  2.00 -1.00 -1.00  2.00  0.00  0.00
A_1u   1.00  1.00  1.00  1.00  1.00  1.00 -1.00 -1.00 -1.00 -1.00 -1.00 -1.00
A_2u   1.00  1.00  1.00  1.00 -1.00 -1.00 -1.00 -1.00 -1.00 -1.00  1.00  1.00
B_1u   1.00 -1.00  1.00 -1.00  1.00 -1.00 -1.00  1.00 -1.00  1.00 -1.00  1.00
B_2u   1.00 -1.00  1.00 -1.00 -1.00  1.00 -1.00  1.00 -1.00  1.00  1.00 -1.00
E_1u   2.00  1.00 -1.00 -2.00  0.00  0.00 -2.00 -1.00  1.00  2.00  0.00  0.00
E_2u   2.00 -1.00 -1.00  2.00  0.00  0.00 -2.00  1.00  1.00 -2.00  0.00  0.00

     the symmetry operations in each class and the name of the first element:

     E        1
          identity                                               
     2C6      5    6
           60 deg rotation - cryst. axis [0,0,1]                 
     2C3      7    8
          120 deg rotation - cryst. axis [0,0,1]                 
     C2       2
          180 deg rotation - cart. axis [0,0,1]                  
     3C2'     4   12   11
          180 deg rotation - cart. axis [1,0,0]                  
     3C2''    3    9   10
          180 deg rotation - cart. axis [0,1,0]                  
     i       13
          inversion                                              
     2S3     17   18
          inv.  60 deg rotation - cryst. axis [0,0,1]            
     2S6     19   20
          inv. 120 deg rotation - cryst. axis [0,0,1]            
     s_h     14
          inv. 180 deg rotation - cart. axis [0,0,1]             
     3s_d    16   24   23
          inv. 180 deg rotation - cart. axis [1,0,0]             
     3s_v    15   21   22
          inv. 180 deg rotation - cart. axis [0,1,0]             

   Cartesian axes

     site n.     atom                  positions (alat units)
         1           C   tau(   1) = (  -0.5000000   0.8660254   1.9498175  )
         2           C   tau(   2) = (   0.5000005   0.2886748   1.9498175  )
         3           C   tau(   3) = (  -0.5000000   0.8660254   0.6499392  )
         4           C   tau(   4) = (  -0.0000005   0.5773506   0.6499392  )

   Crystallographic axes

     site n.     atom                  positions (cryst. coord.)
         1           C   tau(   1) = (  0.0000000  1.0000000  0.7500000  )
         2           C   tau(   2) = (  0.6666670  0.3333330  0.7500000  )
         3           C   tau(   3) = (  0.0000000  1.0000000  0.2500000  )
         4           C   tau(   4) = (  0.3333330  0.6666670  0.2500000  )

     number of k points=     6  Marzari-Vanderbilt smearing, width (Ry)=  0.0200
                       cart. coord. in units 2pi/alat
        k(    1) = (   0.1250000   0.2165064   0.0961628), wk =   0.2500000
        k(    2) = (   0.1250000   0.5051815   0.0961628), wk =   0.5000000
        k(    3) = (   0.1250000  -0.3608439   0.0961628), wk =   0.5000000
        k(    4) = (   0.1250000  -0.0721688   0.0961628), wk =   0.2500000
        k(    5) = (   0.3750000   0.6495191   0.0961628), wk =   0.2500000
        k(    6) = (   0.3750000  -0.2165064   0.0961628), wk =   0.2500000

                       cryst. coord.
        k(    1) = (   0.1250000   0.1250000   0.2500000), wk =   0.2500000
        k(    2) = (   0.1250000   0.3750000   0.2500000), wk =   0.5000000
        k(    3) = (   0.1250000  -0.3750000   0.2500000), wk =   0.5000000
        k(    4) = (   0.1250000  -0.1250000   0.2500000), wk =   0.2500000
        k(    5) = (   0.3750000   0.3750000   0.2500000), wk =   0.2500000
        k(    6) = (   0.3750000  -0.3750000   0.2500000), wk =   0.2500000

     Dense  grid:    14339 G-vectors     FFT dimensions: (  24,  24,  60)

     Smooth grid:     5053 G-vectors     FFT dimensions: (  18,  18,  48)

     Dynamical RAM for                 wfc:       0.06 MB

     Dynamical RAM for     wfc (w. buffer):       0.41 MB

     Dynamical RAM for           str. fact:       0.11 MB

     Dynamical RAM for           local pot:       0.00 MB

     Dynamical RAM for          nlocal pot:       0.15 MB

     Dynamical RAM for                qrad:       0.53 MB

     Dynamical RAM for          rho,v,vnew:       0.72 MB

     Dynamical RAM for               rhoin:       0.24 MB

     Dynamical RAM for            rho*nmix:       1.75 MB

     Dynamical RAM for           G-vectors:       0.43 MB

     Dynamical RAM for          h,s,v(r/c):       0.11 MB

     Dynamical RAM for          <psi|beta>:       0.01 MB

     Dynamical RAM for                 psi:       0.23 MB

     Dynamical RAM for                hpsi:       0.23 MB

     Dynamical RAM for                spsi:       0.23 MB

     Dynamical RAM for      wfcinit/wfcrot:       0.16 MB

     Dynamical RAM for           addusdens:       5.14 MB

     Dynamical RAM for          addusforce:       5.86 MB

     Dynamical RAM for         addusstress:       5.47 MB

     Estimated static dynamical RAM per process >       5.22 MB

     Estimated max dynamical RAM per process >      11.08 MB

     Estimated total dynamical RAM >      22.16 MB

     Initial potential from superposition of free atoms

     starting charge   15.99979, renormalised to   16.00000


     %%%%%%%%%%%%%%%%%%%%%%%%%%%%%%%%%%%%%%%%%%%%%%%%%%%%%%%%%%%%%%%%%%%%%%%%
     %                                                                      %
     % You are using vdW-DF, which was implemented by the Thonhauser group. %
     % Please cite the following two papers that made this development      %
     % possible and the two reviews that describe the various versions:     %
     %                                                                      %
     %   T. Thonhauser et al., PRL 115, 136402 (2015).                      %
     %   T. Thonhauser et al., PRB 76, 125112 (2007).                       %
     %   K. Berland et al., Rep. Prog. Phys. 78, 066501 (2015).             %
     %   D.C. Langreth et al., J. Phys.: Condens. Matter 21, 084203 (2009). %
     %                                                                      %
     %                                                                      %
     % If you are calculating the stress with vdW-DF, please also cite:     %
     %                                                                      %
     %   R. Sabatini et al., J. Phys.: Condens. Matter 24, 424209 (2012).   %
     %                                                                      %
     %%%%%%%%%%%%%%%%%%%%%%%%%%%%%%%%%%%%%%%%%%%%%%%%%%%%%%%%%%%%%%%%%%%%%%%%


     Carrying out vdW-DF run using the following parameters:
     Nqs    =  20  Npoints =  1024  r_max =  100.000
     q_mesh =  0.00001000  0.04494208  0.09755937  0.15916263
               0.23128650  0.31572767  0.41458969  0.53033537
               0.66584808  0.82450364  1.01025438  1.22772762
               1.48234092  1.78043706  2.12944203  2.53805004
               3.01644009  3.57652955  4.23227104  5.00000000


     -----------------------------------------------
     Non-local corr. energy    =       0.11532865 Ry
     -----------------------------------------------

     Starting wfcs are   16 randomized atomic wfcs

     total cpu time spent up to now is        0.4 secs

     Self-consistent Calculation

     iteration #  1     ecut=    30.00 Ry     beta= 0.30
     Davidson diagonalization with overlap
     ethr =  1.00E-02,  avg # of iterations =  3.0


     -----------------------------------------------
     Non-local corr. energy    =       0.12857420 Ry
     -----------------------------------------------


     total cpu time spent up to now is        0.5 secs

     total energy              =     -45.91980486 Ry
     Harris-Foulkes estimate   =     -46.04919583 Ry
     estimated scf accuracy    <       0.42097918 Ry

     iteration #  2     ecut=    30.00 Ry     beta= 0.30
     Davidson diagonalization with overlap
     ethr =  2.63E-03,  avg # of iterations =  1.0


     -----------------------------------------------
     Non-local corr. energy    =       0.14879849 Ry
     -----------------------------------------------


     total cpu time spent up to now is        0.7 secs

     total energy              =     -45.85626573 Ry
     Harris-Foulkes estimate   =     -45.93080666 Ry
     estimated scf accuracy    <       0.14495755 Ry

     iteration #  3     ecut=    30.00 Ry     beta= 0.30
     Davidson diagonalization with overlap
     ethr =  9.06E-04,  avg # of iterations =  2.7


     -----------------------------------------------
     Non-local corr. energy    =       0.14683254 Ry
     -----------------------------------------------


     total cpu time spent up to now is        0.8 secs

     total energy              =     -45.87836473 Ry
     Harris-Foulkes estimate   =     -45.87788776 Ry
     estimated scf accuracy    <       0.00254216 Ry

     iteration #  4     ecut=    30.00 Ry     beta= 0.30
     Davidson diagonalization with overlap
     ethr =  1.59E-05,  avg # of iterations =  3.0


     -----------------------------------------------
     Non-local corr. energy    =       0.14835173 Ry
     -----------------------------------------------


     total cpu time spent up to now is        0.9 secs

     total energy              =     -45.87847685 Ry
     Harris-Foulkes estimate   =     -45.87879775 Ry
     estimated scf accuracy    <       0.00067885 Ry

     iteration #  5     ecut=    30.00 Ry     beta= 0.30
     Davidson diagonalization with overlap
     ethr =  4.24E-06,  avg # of iterations =  2.0


     -----------------------------------------------
     Non-local corr. energy    =       0.14840549 Ry
     -----------------------------------------------


     total cpu time spent up to now is        1.0 secs

     total energy              =     -45.87858323 Ry
     Harris-Foulkes estimate   =     -45.87857745 Ry
     estimated scf accuracy    <       0.00000194 Ry

     iteration #  6     ecut=    30.00 Ry     beta= 0.30
     Davidson diagonalization with overlap
     ethr =  1.21E-08,  avg # of iterations =  4.0


     -----------------------------------------------
     Non-local corr. energy    =       0.14840011 Ry
     -----------------------------------------------


     total cpu time spent up to now is        1.2 secs

     total energy              =     -45.87858540 Ry
     Harris-Foulkes estimate   =     -45.87858420 Ry
     estimated scf accuracy    <       0.00000078 Ry

     iteration #  7     ecut=    30.00 Ry     beta= 0.30
     Davidson diagonalization with overlap
     ethr =  4.90E-09,  avg # of iterations =  2.0


     -----------------------------------------------
     Non-local corr. energy    =       0.14840051 Ry
     -----------------------------------------------


     total cpu time spent up to now is        1.3 secs

     total energy              =     -45.87858588 Ry
     Harris-Foulkes estimate   =     -45.87858548 Ry
     estimated scf accuracy    <          1.8E-09 Ry

     iteration #  8     ecut=    30.00 Ry     beta= 0.30
     Davidson diagonalization with overlap
     ethr =  1.15E-11,  avg # of iterations =  3.0


     -----------------------------------------------
     Non-local corr. energy    =       0.14839789 Ry
     -----------------------------------------------


     total cpu time spent up to now is        1.4 secs

     End of self-consistent calculation

          k = 0.1250 0.2165 0.0962 (   626 PWs)   bands (ev):

   -11.0373 -10.7630   0.4565   1.1175   1.1634   2.0694   2.2113   2.2432
    14.4609  15.4279  15.8012  16.6793

     occupation numbers 
     1.0000   1.0000   1.0000   1.0000   1.0000   1.0000   1.0000   1.0000
     0.0000   0.0000   0.0000   0.0000

          k = 0.1250 0.5052 0.0962 (   635 PWs)   bands (ev):

    -7.5384  -7.3315  -4.6225  -4.4660  -0.0587   0.0233   4.3963   5.4465
     9.4191  10.1031  16.2975  16.7010

     occupation numbers 
     1.0000   1.0000   1.0000   1.0000   1.0000   1.0000   1.0000   1.0000
     0.0000   0.0000   0.0000   0.0000

          k = 0.1250-0.3608 0.0962 (   638 PWs)   bands (ev):

    -9.5969  -9.3475  -1.6544  -1.5442   0.7065   0.7748   2.1601   3.6363
    12.3468  12.9462  16.0709  16.6860

     occupation numbers 
     1.0000   1.0000   1.0000   1.0000   1.0000   1.0000   1.0000   1.0000
     0.0000   0.0000   0.0000   0.0000

          k = 0.1250-0.0722 0.0962 (   616 PWs)   bands (ev):

   -11.7694 -11.4826  -0.4249   1.2413   2.8924   2.9420   3.5650   3.6019
    13.6215  15.8420  15.9836  17.2513

     occupation numbers 
     1.0000   1.0000   1.0000   1.0000   1.0000   1.0000   1.0000   1.0000
     0.0000   0.0000   0.0000   0.0000

          k = 0.3750 0.6495 0.0962 (   638 PWs)   bands (ev):

    -5.9512  -5.8480  -4.9984  -4.9595  -2.3019  -2.2035   6.0807   6.6784
     8.4183   8.5912  18.4362  18.5524

     occupation numbers 
     1.0000   1.0000   1.0000   1.0000   1.0000   1.0000   1.0009   0.9991
     0.0000   0.0000   0.0000   0.0000

          k = 0.3750-0.2165 0.0962 (   632 PWs)   bands (ev):

    -8.8912  -8.6544  -3.3310  -3.1822   1.2879   1.3445   2.9430   4.2996
    10.8624  11.7202  14.9794  15.3103

     occupation numbers 
     1.0000   1.0000   1.0000   1.0000   1.0000   1.0000   1.0000   1.0000
     0.0000   0.0000   0.0000   0.0000

     the Fermi energy is     6.9284 ev

!    total energy              =     -45.87858627 Ry
     Harris-Foulkes estimate   =     -45.87858589 Ry
     estimated scf accuracy    <          6.4E-10 Ry

     The total energy is the sum of the following terms:

     one-electron contribution =      -7.79924276 Ry
     hartree contribution      =      12.20154491 Ry
     xc contribution           =     -14.40531127 Ry
     ewald contribution        =     -35.87599542 Ry
     smearing contrib. (-TS)   =       0.00041826 Ry

     convergence has been achieved in   8 iterations

     Forces acting on atoms (cartesian axes, Ry/au):

     atom    1 type  1   force =     0.00000000   -0.00000000    0.00000000
     atom    2 type  1   force =     0.00000000    0.00000000    0.00000000
     atom    3 type  1   force =    -0.00000000   -0.00000000    0.00000000
     atom    4 type  1   force =    -0.00000000   -0.00000000    0.00000000
     The non-local contrib.  to forces
     atom    1 type  1   force =     0.00000000   -0.00000000    0.00000000
     atom    2 type  1   force =     0.00000000   -0.00000000    0.00000000
     atom    3 type  1   force =    -0.00000000   -0.00000000    0.00000000
     atom    4 type  1   force =     0.00000000   -0.00000000    0.00000000
     The ionic contribution  to forces
     atom    1 type  1   force =     0.00000852   -0.00000492   -0.00000000
     atom    2 type  1   force =    -0.00000856    0.00000494   -0.00000000
     atom    3 type  1   force =    -0.00000852    0.00000492    0.00000000
     atom    4 type  1   force =     0.00000856   -0.00000494    0.00000000
     The local contribution  to forces
     atom    1 type  1   force =    -0.00000000    0.00000000   -0.00000000
     atom    2 type  1   force =    -0.00000822    0.00000475   -0.00000000
     atom    3 type  1   force =    -0.00000000   -0.00000000    0.00000000
     atom    4 type  1   force =     0.00000822   -0.00000475    0.00000000
     The core correction contribution to forces
     atom    1 type  1   force =     0.00000000    0.00000000    0.00000000
     atom    2 type  1   force =     0.00000000    0.00000000    0.00000000
     atom    3 type  1   force =     0.00000000    0.00000000    0.00000000
     atom    4 type  1   force =     0.00000000    0.00000000    0.00000000
     The Hubbard contrib.    to forces
     atom    1 type  1   force =     0.00000000    0.00000000    0.00000000
     atom    2 type  1   force =     0.00000000    0.00000000    0.00000000
     atom    3 type  1   force =     0.00000000    0.00000000    0.00000000
     atom    4 type  1   force =     0.00000000    0.00000000    0.00000000
     The SCF correction term to forces
     atom    1 type  1   force =    -0.00000000    0.00000000   -0.00000000
     atom    2 type  1   force =     0.00000000   -0.00000000    0.00000000
     atom    3 type  1   force =     0.00000000   -0.00000000   -0.00000000
     atom    4 type  1   force =    -0.00000000    0.00000000   -0.00000000

     Total force =     0.000000     Total SCF correction =     0.000000


     Computing stress (Cartesian axis) and pressure

          total   stress  (Ry/bohr**3)                   (kbar)     P=    8.82
  -0.00007034  -0.00000000  -0.00000000        -10.35     -0.00     -0.00
  -0.00000000  -0.00007034  -0.00000000         -0.00    -10.35     -0.00
   0.00000000   0.00000000   0.00032064          0.00      0.00     47.17

     kinetic stress (kbar)  11086.60     -0.00      0.00
                               -0.00  11086.60      0.00
                                0.00      0.00  12877.39

     local   stress (kbar) -16917.61      0.01     -0.00
                                0.01 -16917.59      0.00
                               -0.00      0.00  24227.93

     nonloc. stress (kbar)   -479.53      0.00      0.00
                                0.00   -479.53      0.00
                                0.00      0.00   -480.21

     hartree stress (kbar)   6772.20      0.00      0.00
                                0.00   6772.20     -0.00
                                0.00     -0.00  -5666.63

     exc-cor stress (kbar)  -2845.55      0.00     -0.00
                                0.00  -2845.55      0.00
                               -0.00      0.00  -3092.61

     corecor stress (kbar)      0.00      0.00      0.00
                                0.00      0.00      0.00
                                0.00      0.00      0.00

     ewald   stress (kbar)   2365.81     -0.03      0.00
                               -0.03   2365.78     -0.00
                                0.00     -0.00 -27894.46

     hubbard stress (kbar)      0.00      0.00      0.00
                                0.00      0.00      0.00
                                0.00      0.00      0.00

     london  stress (kbar)      0.00      0.00      0.00
                                0.00      0.00      0.00
                                0.00      0.00      0.00

     DFT-D3  stress (kbar)      0.00      0.00      0.00
                                0.00      0.00      0.00
                                0.00      0.00      0.00

     XDM     stress (kbar)      0.00      0.00      0.00
                                0.00      0.00      0.00
                                0.00      0.00      0.00

     dft-nl  stress (kbar)      7.73     -0.00      0.00
                               -0.00      7.73     -0.00
                                0.00     -0.00     75.76

     TS-vdW  stress (kbar)      0.00      0.00      0.00
                                0.00      0.00      0.00
                                0.00      0.00      0.00



     BFGS Geometry Optimization

     number of scf cycles    =   1
     number of bfgs steps    =   0

     enthalpy new            =     -45.8785862735 Ry

     new trust radius        =       0.0241996133 bohr
     new conv_thr            =       0.0000000010 Ry

     new unit-cell volume =    228.86420 a.u.^3 (    33.91417 Ang^3 )
     density =      2.35238 g/cm^3

CELL_PARAMETERS (alat=  4.66006464)
   0.998241529  -0.000000000  -0.000000000
  -0.499120764   0.864502523   0.000000000
  -0.000000000  -0.000000000   2.620596396

ATOMIC_POSITIONS (crystal)
C        0.000000000   1.000000000   0.750000000
C        0.666667000   0.333333000   0.750000000
C        0.000000000   1.000000000   0.250000000
C        0.333333000   0.666667000   0.250000000



     Writing output data file graphite.save/
     NEW-OLD atomic charge density approx. for the potential


     -----------------------------------------------
     Non-local corr. energy    =       0.14955600 Ry
     -----------------------------------------------

     extrapolated charge   16.07126, renormalised to   16.00000

     total cpu time spent up to now is        1.8 secs

     Self-consistent Calculation

     iteration #  1     ecut=    30.00 Ry     beta= 0.30
     Davidson diagonalization with overlap
     ethr =  1.00E-06,  avg # of iterations =  4.2


     -----------------------------------------------
     Non-local corr. energy    =       0.14886721 Ry
     -----------------------------------------------


     total cpu time spent up to now is        1.9 secs

     total energy              =     -45.87898599 Ry
     Harris-Foulkes estimate   =     -45.85077180 Ry
     estimated scf accuracy    <       0.00004310 Ry

     iteration #  2     ecut=    30.00 Ry     beta= 0.30
     Davidson diagonalization with overlap
     ethr =  2.69E-07,  avg # of iterations =  3.3


     -----------------------------------------------
     Non-local corr. energy    =       0.14893361 Ry
     -----------------------------------------------


     total cpu time spent up to now is        2.0 secs

     total energy              =     -45.87914273 Ry
     Harris-Foulkes estimate   =     -45.87915168 Ry
     estimated scf accuracy    <       0.00006117 Ry

     iteration #  3     ecut=    30.00 Ry     beta= 0.30
     Davidson diagonalization with overlap
     ethr =  2.69E-07,  avg # of iterations =  1.0


     -----------------------------------------------
     Non-local corr. energy    =       0.14928240 Ry
     -----------------------------------------------


     total cpu time spent up to now is        2.1 secs

     total energy              =     -45.87912027 Ry
     Harris-Foulkes estimate   =     -45.87914318 Ry
     estimated scf accuracy    <       0.00004048 Ry

     iteration #  4     ecut=    30.00 Ry     beta= 0.30
     Davidson diagonalization with overlap
     ethr =  2.53E-07,  avg # of iterations =  2.0


     -----------------------------------------------
     Non-local corr. energy    =       0.14923529 Ry
     -----------------------------------------------


     total cpu time spent up to now is        2.2 secs

     total energy              =     -45.87912895 Ry
     Harris-Foulkes estimate   =     -45.87913030 Ry
     estimated scf accuracy    <       0.00000399 Ry

     iteration #  5     ecut=    30.00 Ry     beta= 0.30
     Davidson diagonalization with overlap
     ethr =  2.49E-08,  avg # of iterations =  1.0


     -----------------------------------------------
     Non-local corr. energy    =       0.14916099 Ry
     -----------------------------------------------


     total cpu time spent up to now is        2.3 secs

     total energy              =     -45.87912822 Ry
     Harris-Foulkes estimate   =     -45.87912908 Ry
     estimated scf accuracy    <       0.00000133 Ry

     iteration #  6     ecut=    30.00 Ry     beta= 0.30
     Davidson diagonalization with overlap
     ethr =  8.28E-09,  avg # of iterations =  2.0


     -----------------------------------------------
     Non-local corr. energy    =       0.14917617 Ry
     -----------------------------------------------


     total cpu time spent up to now is        2.4 secs

     total energy              =     -45.87912848 Ry
     Harris-Foulkes estimate   =     -45.87912850 Ry
     estimated scf accuracy    <       0.00000004 Ry

     iteration #  7     ecut=    30.00 Ry     beta= 0.30
     Davidson diagonalization with overlap
     ethr =  2.26E-10,  avg # of iterations =  2.0


     -----------------------------------------------
     Non-local corr. energy    =       0.14916832 Ry
     -----------------------------------------------


     total cpu time spent up to now is        2.5 secs

     total energy              =     -45.87912849 Ry
     Harris-Foulkes estimate   =     -45.87912849 Ry
     estimated scf accuracy    <       0.00000001 Ry

     iteration #  8     ecut=    30.00 Ry     beta= 0.30
     Davidson diagonalization with overlap
     ethr =  7.26E-11,  avg # of iterations =  2.0


     -----------------------------------------------
     Non-local corr. energy    =       0.14917039 Ry
     -----------------------------------------------


     total cpu time spent up to now is        2.6 secs

     total energy              =     -45.87912849 Ry
     Harris-Foulkes estimate   =     -45.87912849 Ry
     estimated scf accuracy    <          1.9E-09 Ry

     iteration #  9     ecut=    30.00 Ry     beta= 0.30
     Davidson diagonalization with overlap
     ethr =  1.17E-11,  avg # of iterations =  2.0


     -----------------------------------------------
     Non-local corr. energy    =       0.14917100 Ry
     -----------------------------------------------


     total cpu time spent up to now is        2.7 secs

     End of self-consistent calculation

          k = 0.1252 0.2169 0.0954 (   626 PWs)   bands (ev):

   -11.1210 -10.8630   0.4008   1.0601   1.1025   1.9522   2.1480   2.1774
    14.2893  15.4308  15.7850  16.6633

     occupation numbers 
     1.0000   1.0000   1.0000   1.0000   1.0000   1.0000   1.0000   1.0000
     0.0000   0.0000   0.0000   0.0000

          k = 0.1252 0.5061 0.0954 (   635 PWs)   bands (ev):

    -7.6114  -7.4173  -4.6949  -4.5483  -0.1283  -0.0522   4.3534   5.3630
     9.3831  10.0442  16.3096  16.6932

     occupation numbers 
     1.0000   1.0000   1.0000   1.0000   1.0000   1.0000   1.0000   1.0000
     0.0000   0.0000   0.0000   0.0000

          k = 0.1252-0.3615 0.0954 (   638 PWs)   bands (ev):

    -9.6767  -9.4423  -1.7173  -1.6146   0.6388   0.7022   2.1107   3.5302
    12.3333  12.9078  15.9293  16.6887

     occupation numbers 
     1.0000   1.0000   1.0000   1.0000   1.0000   1.0000   1.0000   1.0000
     0.0000   0.0000   0.0000   0.0000

          k = 0.1252-0.0723 0.0954 (   616 PWs)   bands (ev):

   -11.8551 -11.5850  -0.4841   1.1190   2.8378   2.8837   3.5089   3.5428
    13.4396  15.8287  15.9637  17.2409

     occupation numbers 
     1.0000   1.0000   1.0000   1.0000   1.0000   1.0000   1.0000   1.0000
     0.0000   0.0000   0.0000   0.0000

          k = 0.3757 0.6507 0.0954 (   638 PWs)   bands (ev):

    -6.0179  -5.9215  -5.0756  -5.0384  -2.3822  -2.2898   6.0430   6.6164
     8.3710   8.5293  18.3885  18.5115

     occupation numbers 
     1.0000   1.0000   1.0000   1.0000   1.0000   1.0000   1.0013   0.9987
     0.0000   0.0000   0.0000   0.0000

          k = 0.3757-0.2169 0.0954 (   632 PWs)   bands (ev):

    -8.9688  -8.7464  -3.3991  -3.2602   1.2217   1.2737   2.8961   4.2004
    10.8404  11.6661  14.9864  15.2962

     occupation numbers 
     1.0000   1.0000   1.0000   1.0000   1.0000   1.0000   1.0000   1.0000
     0.0000   0.0000   0.0000   0.0000

     the Fermi energy is     6.8661 ev

!    total energy              =     -45.87912849 Ry
     Harris-Foulkes estimate   =     -45.87912849 Ry
     estimated scf accuracy    <          6.2E-11 Ry

     The total energy is the sum of the following terms:

     one-electron contribution =      -8.42577538 Ry
     hartree contribution      =      12.47985943 Ry
     xc contribution           =     -14.41822043 Ry
     ewald contribution        =     -35.51541522 Ry
     smearing contrib. (-TS)   =       0.00042311 Ry

     convergence has been achieved in   9 iterations

     Forces acting on atoms (cartesian axes, Ry/au):

     atom    1 type  1   force =     0.00000000   -0.00000000    0.00000000
     atom    2 type  1   force =     0.00000000    0.00000000    0.00000000
     atom    3 type  1   force =    -0.00000000   -0.00000000   -0.00000000
     atom    4 type  1   force =     0.00000000    0.00000000    0.00000000
     The non-local contrib.  to forces
     atom    1 type  1   force =    -0.00000000   -0.00000000   -0.00000000
     atom    2 type  1   force =    -0.00000000    0.00000000   -0.00000000
     atom    3 type  1   force =     0.00000000    0.00000000    0.00000000
     atom    4 type  1   force =     0.00000000    0.00000000    0.00000000
     The ionic contribution  to forces
     atom    1 type  1   force =     0.00000855   -0.00000494   -0.00000000
     atom    2 type  1   force =    -0.00000858    0.00000496   -0.00000000
     atom    3 type  1   force =    -0.00000855    0.00000494    0.00000000
     atom    4 type  1   force =     0.00000858   -0.00000496    0.00000000
     The local contribution  to forces
     atom    1 type  1   force =     0.00000000    0.00000000   -0.00000000
     atom    2 type  1   force =    -0.00000820    0.00000473   -0.00000000
     atom    3 type  1   force =     0.00000000   -0.00000000    0.00000000
     atom    4 type  1   force =     0.00000820   -0.00000473    0.00000000
     The core correction contribution to forces
     atom    1 type  1   force =     0.00000000    0.00000000    0.00000000
     atom    2 type  1   force =     0.00000000    0.00000000    0.00000000
     atom    3 type  1   force =     0.00000000    0.00000000    0.00000000
     atom    4 type  1   force =     0.00000000    0.00000000    0.00000000
     The Hubbard contrib.    to forces
     atom    1 type  1   force =     0.00000000    0.00000000    0.00000000
     atom    2 type  1   force =     0.00000000    0.00000000    0.00000000
     atom    3 type  1   force =     0.00000000    0.00000000    0.00000000
     atom    4 type  1   force =     0.00000000    0.00000000    0.00000000
     The SCF correction term to forces
     atom    1 type  1   force =     0.00000000   -0.00000000   -0.00000000
     atom    2 type  1   force =     0.00000000   -0.00000000   -0.00000000
     atom    3 type  1   force =    -0.00000000    0.00000000    0.00000000
     atom    4 type  1   force =    -0.00000000    0.00000000    0.00000000

     Total force =     0.000000     Total SCF correction =     0.000000


     Computing stress (Cartesian axis) and pressure

          total   stress  (Ry/bohr**3)                   (kbar)     P=   21.85
   0.00008275  -0.00000000   0.00000000         12.17     -0.00      0.00
  -0.00000000   0.00008275  -0.00000000         -0.00     12.17     -0.00
   0.00000000  -0.00000000   0.00028008          0.00     -0.00     41.20

     kinetic stress (kbar)  11058.94      0.00      0.00
                                0.00  11058.94      0.00
                                0.00      0.00  12828.41

     local   stress (kbar) -17292.11      0.01      0.00
                                0.01 -17292.09      0.00
                                0.00      0.00  24617.03

     nonloc. stress (kbar)   -481.96      0.00     -0.00
                                0.00   -481.96     -0.00
                               -0.00     -0.00   -481.21

     hartree stress (kbar)   6924.18     -0.00      0.00
                               -0.00   6924.18      0.00
                                0.00      0.00  -5826.78

     exc-cor stress (kbar)  -2835.42     -0.00     -0.00
                               -0.00  -2835.42      0.00
                               -0.00      0.00  -3082.81

     corecor stress (kbar)      0.00      0.00      0.00
                                0.00      0.00      0.00
                                0.00      0.00      0.00

     ewald   stress (kbar)   2630.93     -0.03     -0.00
                               -0.03   2630.90      0.00
                               -0.00      0.00 -28089.77

     hubbard stress (kbar)      0.00      0.00      0.00
                                0.00      0.00      0.00
                                0.00      0.00      0.00

     london  stress (kbar)      0.00      0.00      0.00
                                0.00      0.00      0.00
                                0.00      0.00      0.00

     DFT-D3  stress (kbar)      0.00      0.00      0.00
                                0.00      0.00      0.00
                                0.00      0.00      0.00

     XDM     stress (kbar)      0.00      0.00      0.00
                                0.00      0.00      0.00
                                0.00      0.00      0.00

     dft-nl  stress (kbar)      7.62      0.00      0.00
                                0.00      7.62     -0.00
                                0.00     -0.00     76.34

     TS-vdW  stress (kbar)      0.00      0.00      0.00
                                0.00      0.00      0.00
                                0.00      0.00      0.00



     number of scf cycles    =   2
     number of bfgs steps    =   1

     enthalpy old            =     -45.8785862735 Ry
     enthalpy new            =     -45.8791284903 Ry

     CASE: enthalpy_new < enthalpy_old

     new trust radius        =       0.0360912231 bohr
     new conv_thr            =            1.0E-11 Ry

     new unit-cell volume =    231.65240 a.u.^3 (    34.32734 Ang^3 )
     density =      2.32406 g/cm^3

CELL_PARAMETERS (alat=  4.66006464)
   0.998366976  -0.000000000   0.000000000
  -0.499183488   0.864611164   0.000000000
  -0.000000000  -0.000000000   2.651855953

ATOMIC_POSITIONS (crystal)
C        0.000000000   1.000000000   0.750000000
C        0.666667000   0.333333000   0.750000000
C        0.000000000   1.000000000   0.250000000
C        0.333333000   0.666667000   0.250000000



     Writing output data file graphite.save/
     NEW-OLD atomic charge density approx. for the potential


     -----------------------------------------------
     Non-local corr. energy    =       0.15174308 Ry
     -----------------------------------------------

     extrapolated charge   16.19258, renormalised to   16.00000

     total cpu time spent up to now is        3.1 secs

     Self-consistent Calculation

     iteration #  1     ecut=    30.00 Ry     beta= 0.30
     Davidson diagonalization with overlap
     ethr =  1.00E-06,  avg # of iterations =  5.2


     -----------------------------------------------
     Non-local corr. energy    =       0.14971251 Ry
     -----------------------------------------------


     total cpu time spent up to now is        3.2 secs

     total energy              =     -45.87855759 Ry
     Harris-Foulkes estimate   =     -45.79434674 Ry
     estimated scf accuracy    <       0.00054153 Ry

     iteration #  2     ecut=    30.00 Ry     beta= 0.30
     Davidson diagonalization with overlap
     ethr =  3.38E-06,  avg # of iterations =  3.8


     -----------------------------------------------
     Non-local corr. energy    =       0.14991924 Ry
     -----------------------------------------------


     total cpu time spent up to now is        3.3 secs

     total energy              =     -45.87987345 Ry
     Harris-Foulkes estimate   =     -45.87992822 Ry
     estimated scf accuracy    <       0.00025509 Ry

     iteration #  3     ecut=    30.00 Ry     beta= 0.30
     Davidson diagonalization with overlap
     ethr =  1.59E-06,  avg # of iterations =  1.0


     -----------------------------------------------
     Non-local corr. energy    =       0.15066646 Ry
     -----------------------------------------------


     total cpu time spent up to now is        3.4 secs

     total energy              =     -45.87978816 Ry
     Harris-Foulkes estimate   =     -45.87987702 Ry
     estimated scf accuracy    <       0.00013984 Ry

     iteration #  4     ecut=    30.00 Ry     beta= 0.30
     Davidson diagonalization with overlap
     ethr =  8.74E-07,  avg # of iterations =  2.5


     -----------------------------------------------
     Non-local corr. energy    =       0.15055612 Ry
     -----------------------------------------------


     total cpu time spent up to now is        3.5 secs

     total energy              =     -45.87981939 Ry
     Harris-Foulkes estimate   =     -45.87982582 Ry
     estimated scf accuracy    <       0.00001636 Ry

     iteration #  5     ecut=    30.00 Ry     beta= 0.30
     Davidson diagonalization with overlap
     ethr =  1.02E-07,  avg # of iterations =  1.0


     -----------------------------------------------
     Non-local corr. energy    =       0.15046832 Ry
     -----------------------------------------------


     total cpu time spent up to now is        3.6 secs

     total energy              =     -45.87981795 Ry
     Harris-Foulkes estimate   =     -45.87982008 Ry
     estimated scf accuracy    <       0.00000402 Ry

     iteration #  6     ecut=    30.00 Ry     beta= 0.30
     Davidson diagonalization with overlap
     ethr =  2.51E-08,  avg # of iterations =  2.0


     -----------------------------------------------
     Non-local corr. energy    =       0.15045778 Ry
     -----------------------------------------------


     total cpu time spent up to now is        3.7 secs

     total energy              =     -45.87981831 Ry
     Harris-Foulkes estimate   =     -45.87981836 Ry
     estimated scf accuracy    <       0.00000017 Ry

     iteration #  7     ecut=    30.00 Ry     beta= 0.30
     Davidson diagonalization with overlap
     ethr =  1.08E-09,  avg # of iterations =  1.2


     -----------------------------------------------
     Non-local corr. energy    =       0.15044075 Ry
     -----------------------------------------------


     total cpu time spent up to now is        3.8 secs

     total energy              =     -45.87981828 Ry
     Harris-Foulkes estimate   =     -45.87981832 Ry
     estimated scf accuracy    <       0.00000006 Ry

     iteration #  8     ecut=    30.00 Ry     beta= 0.30
     Davidson diagonalization with overlap
     ethr =  3.89E-10,  avg # of iterations =  2.0


     -----------------------------------------------
     Non-local corr. energy    =       0.15044530 Ry
     -----------------------------------------------


     total cpu time spent up to now is        3.9 secs

     total energy              =     -45.87981829 Ry
     Harris-Foulkes estimate   =     -45.87981830 Ry
     estimated scf accuracy    <          5.6E-09 Ry

     iteration #  9     ecut=    30.00 Ry     beta= 0.30
     Davidson diagonalization with overlap
     ethr =  3.53E-11,  avg # of iterations =  2.0


     -----------------------------------------------
     Non-local corr. energy    =       0.15044469 Ry
     -----------------------------------------------


     total cpu time spent up to now is        4.0 secs

     total energy              =     -45.87981830 Ry
     Harris-Foulkes estimate   =     -45.87981830 Ry
     estimated scf accuracy    <          3.6E-11 Ry

     iteration # 10     ecut=    30.00 Ry     beta= 0.30
     Davidson diagonalization with overlap
     ethr =  2.22E-13,  avg # of iterations =  2.0


     -----------------------------------------------
     Non-local corr. energy    =       0.15044512 Ry
     -----------------------------------------------


     total cpu time spent up to now is        4.1 secs

     total energy              =     -45.87981830 Ry
     Harris-Foulkes estimate   =     -45.87981830 Ry
     estimated scf accuracy    <          4.8E-11 Ry

     iteration # 11     ecut=    30.00 Ry     beta= 0.30
     Davidson diagonalization with overlap
     ethr =  2.22E-13,  avg # of iterations =  2.0


     -----------------------------------------------
     Non-local corr. energy    =       0.15044509 Ry
     -----------------------------------------------


     total cpu time spent up to now is        4.2 secs

     End of self-consistent calculation

          k = 0.1252 0.2169 0.0943 (   626 PWs)   bands (ev):

   -11.2484 -11.0121   0.2991   0.9199   0.9580   1.7656   2.0071   2.0336
    14.0023  15.3042  15.6328  16.5176

     occupation numbers 
     1.0000   1.0000   1.0000   1.0000   1.0000   1.0000   1.0000   1.0000
     0.0000   0.0000   0.0000   0.0000

          k = 0.1252 0.5060 0.0943 (   635 PWs)   bands (ev):

    -7.7426  -7.5654  -4.8285  -4.6951  -0.2659  -0.1973   4.2432   5.1957
     9.2557   9.8816  16.1785  16.5342

     occupation numbers 
     1.0000   1.0000   1.0000   1.0000   1.0000   1.0000   1.0000   1.0000
     0.0000   0.0000   0.0000   0.0000

          k = 0.1252-0.3614 0.0943 (   638 PWs)   bands (ev):

    -9.8055  -9.5912  -1.8538  -1.7608   0.5003   0.5575   2.0068   3.3476
    12.2109  12.7495  15.6660  16.5514

     occupation numbers 
     1.0000   1.0000   1.0000   1.0000   1.0000   1.0000   1.0000   1.0000
     0.0000   0.0000   0.0000   0.0000

          k = 0.1252-0.0723 0.0943 (   616 PWs)   bands (ev):

   -11.9818 -11.7344  -0.5851   0.9309   2.6973   2.7384   3.3677   3.3979
    13.1442  15.6874  15.8133  17.0979

     occupation numbers 
     1.0000   1.0000   1.0000   1.0000   1.0000   1.0000   1.0000   1.0000
     0.0000   0.0000   0.0000   0.0000

          k = 0.3756 0.6506 0.0943 (   638 PWs)   bands (ev):

    -6.1532  -6.0655  -5.2150  -5.1810  -2.5180  -2.4343   5.9281   6.4681
     8.2310   8.3721  18.2357  18.3537

     occupation numbers 
     1.0000   1.0000   1.0000   1.0000   1.0000   1.0000   1.0023   0.9977
     0.0000   0.0000   0.0000   0.0000

          k = 0.3756-0.2169 0.0943 (   632 PWs)   bands (ev):

    -9.0983  -8.8951  -3.5334  -3.4072   1.0824   1.1290   2.7905   4.0219
    10.7210  11.4991  14.8541  15.1369

     occupation numbers 
     1.0000   1.0000   1.0000   1.0000   1.0000   1.0000   1.0000   1.0000
     0.0000   0.0000   0.0000   0.0000

     the Fermi energy is     6.7171 ev

!    total energy              =     -45.87981830 Ry
     Harris-Foulkes estimate   =     -45.87981830 Ry
     estimated scf accuracy    <          1.7E-13 Ry

     The total energy is the sum of the following terms:

     one-electron contribution =      -9.30459485 Ry
     hartree contribution      =      12.83399854 Ry
     xc contribution           =     -14.41435475 Ry
     ewald contribution        =     -34.99530021 Ry
     smearing contrib. (-TS)   =       0.00043298 Ry

     convergence has been achieved in  11 iterations

     Forces acting on atoms (cartesian axes, Ry/au):

     atom    1 type  1   force =    -0.00000000   -0.00000000   -0.00000000
     atom    2 type  1   force =     0.00000000    0.00000000    0.00000000
     atom    3 type  1   force =    -0.00000000   -0.00000000   -0.00000000
     atom    4 type  1   force =     0.00000000    0.00000000    0.00000000
     The non-local contrib.  to forces
     atom    1 type  1   force =    -0.00000000    0.00000000    0.00000000
     atom    2 type  1   force =    -0.00000000   -0.00000000   -0.00000000
     atom    3 type  1   force =    -0.00000000   -0.00000000   -0.00000000
     atom    4 type  1   force =    -0.00000000    0.00000000    0.00000000
     The ionic contribution  to forces
     atom    1 type  1   force =     0.00000855   -0.00000494   -0.00000000
     atom    2 type  1   force =    -0.00000858    0.00000495   -0.00000000
     atom    3 type  1   force =    -0.00000855    0.00000494    0.00000000
     atom    4 type  1   force =     0.00000858   -0.00000495    0.00000000
     The local contribution  to forces
     atom    1 type  1   force =     0.00000000    0.00000000   -0.00000000
     atom    2 type  1   force =    -0.00000820    0.00000473   -0.00000000
     atom    3 type  1   force =     0.00000000   -0.00000000    0.00000000
     atom    4 type  1   force =     0.00000820   -0.00000473    0.00000000
     The core correction contribution to forces
     atom    1 type  1   force =     0.00000000    0.00000000    0.00000000
     atom    2 type  1   force =     0.00000000    0.00000000    0.00000000
     atom    3 type  1   force =     0.00000000    0.00000000    0.00000000
     atom    4 type  1   force =     0.00000000    0.00000000    0.00000000
     The Hubbard contrib.    to forces
     atom    1 type  1   force =     0.00000000    0.00000000    0.00000000
     atom    2 type  1   force =     0.00000000    0.00000000    0.00000000
     atom    3 type  1   force =     0.00000000    0.00000000    0.00000000
     atom    4 type  1   force =     0.00000000    0.00000000    0.00000000
     The SCF correction term to forces
     atom    1 type  1   force =    -0.00000000    0.00000000    0.00000000
     atom    2 type  1   force =     0.00000000   -0.00000000    0.00000000
     atom    3 type  1   force =     0.00000000   -0.00000000    0.00000000
     atom    4 type  1   force =    -0.00000000    0.00000000    0.00000000

     Total force =     0.000000     Total SCF correction =     0.000000


     Computing stress (Cartesian axis) and pressure

          total   stress  (Ry/bohr**3)                   (kbar)     P=   18.24
   0.00007455  -0.00000000   0.00000000         10.97     -0.00      0.00
  -0.00000000   0.00007455   0.00000000         -0.00     10.97      0.00
   0.00000000   0.00000000   0.00022281          0.00      0.00     32.78

     kinetic stress (kbar)  10923.68      0.00      0.00
                                0.00  10923.68      0.00
                                0.00      0.00  12666.58

     local   stress (kbar) -17634.14      0.01     -0.00
                                0.01 -17634.13     -0.00
                               -0.00     -0.00  24865.21

     nonloc. stress (kbar)   -476.02     -0.00     -0.00
                               -0.00   -476.02     -0.00
                               -0.00     -0.00   -475.10

     hartree stress (kbar)   7065.11     -0.00      0.00
                               -0.00   7065.11      0.00
                                0.00      0.00  -5980.32

     exc-cor stress (kbar)  -2800.58     -0.00      0.00
                               -0.00  -2800.58      0.00
                                0.00      0.00  -3046.45

     corecor stress (kbar)      0.00      0.00      0.00
                                0.00      0.00      0.00
                                0.00      0.00      0.00

     ewald   stress (kbar)   2925.43     -0.03     -0.00
                               -0.03   2925.40      0.00
                               -0.00      0.00 -28073.72

     hubbard stress (kbar)      0.00      0.00      0.00
                                0.00      0.00      0.00
                                0.00      0.00      0.00

     london  stress (kbar)      0.00      0.00      0.00
                                0.00      0.00      0.00
                                0.00      0.00      0.00

     DFT-D3  stress (kbar)      0.00      0.00      0.00
                                0.00      0.00      0.00
                                0.00      0.00      0.00

     XDM     stress (kbar)      0.00      0.00      0.00
                                0.00      0.00      0.00
                                0.00      0.00      0.00

     dft-nl  stress (kbar)      7.50     -0.00     -0.00
                               -0.00      7.50     -0.00
                               -0.00     -0.00     76.58

     TS-vdW  stress (kbar)      0.00      0.00      0.00
                                0.00      0.00      0.00
                                0.00      0.00      0.00



     number of scf cycles    =   3
     number of bfgs steps    =   2

     enthalpy old            =     -45.8791284903 Ry
     enthalpy new            =     -45.8798182966 Ry

     CASE: enthalpy_new < enthalpy_old

     new trust radius        =       0.0538235747 bohr
     new conv_thr            =            1.0E-11 Ry

     new unit-cell volume =    235.93301 a.u.^3 (    34.96166 Ang^3 )
     density =      2.28190 g/cm^3

CELL_PARAMETERS (alat=  4.66006464)
   0.998757783  -0.000000000   0.000000000
  -0.499378891   0.864949612   0.000000000
  -0.000000000  -0.000000000   2.698745288

ATOMIC_POSITIONS (crystal)
C       -0.000000000   1.000000000   0.750000000
C        0.666667000   0.333333000   0.750000000
C       -0.000000000   1.000000000   0.250000000
C        0.333333000   0.666667000   0.250000000



     Writing output data file graphite.save/
     NEW-OLD atomic charge density approx. for the potential


     -----------------------------------------------
     Non-local corr. energy    =       0.15427255 Ry
     -----------------------------------------------

     extrapolated charge   16.29029, renormalised to   16.00000

     total cpu time spent up to now is        4.6 secs

     Self-consistent Calculation

     iteration #  1     ecut=    30.00 Ry     beta= 0.30
     Davidson diagonalization with overlap
     ethr =  1.00E-06,  avg # of iterations =  7.0


     -----------------------------------------------
     Non-local corr. energy    =       0.15115746 Ry
     -----------------------------------------------


     total cpu time spent up to now is        4.8 secs

     total energy              =     -45.87754102 Ry
     Harris-Foulkes estimate   =     -45.73195581 Ry
     estimated scf accuracy    <       0.00132167 Ry

     iteration #  2     ecut=    30.00 Ry     beta= 0.30
     Davidson diagonalization with overlap
     ethr =  8.26E-06,  avg # of iterations =  4.2


     -----------------------------------------------
     Non-local corr. energy    =       0.15147894 Ry
     -----------------------------------------------


     total cpu time spent up to now is        4.9 secs

     total energy              =     -45.88071212 Ry
     Harris-Foulkes estimate   =     -45.88084478 Ry
     estimated scf accuracy    <       0.00060761 Ry

     iteration #  3     ecut=    30.00 Ry     beta= 0.30
     Davidson diagonalization with overlap
     ethr =  3.80E-06,  avg # of iterations =  1.0


     -----------------------------------------------
     Non-local corr. energy    =       0.15263109 Ry
     -----------------------------------------------


     total cpu time spent up to now is        5.0 secs

     total energy              =     -45.88050741 Ry
     Harris-Foulkes estimate   =     -45.88072081 Ry
     estimated scf accuracy    <       0.00033094 Ry

     iteration #  4     ecut=    30.00 Ry     beta= 0.30
     Davidson diagonalization with overlap
     ethr =  2.07E-06,  avg # of iterations =  3.2


     -----------------------------------------------
     Non-local corr. energy    =       0.15246562 Ry
     -----------------------------------------------


     total cpu time spent up to now is        5.1 secs

     total energy              =     -45.88058253 Ry
     Harris-Foulkes estimate   =     -45.88059748 Ry
     estimated scf accuracy    <       0.00003847 Ry

     iteration #  5     ecut=    30.00 Ry     beta= 0.30
     Davidson diagonalization with overlap
     ethr =  2.40E-07,  avg # of iterations =  1.0


     -----------------------------------------------
     Non-local corr. energy    =       0.15232592 Ry
     -----------------------------------------------


     total cpu time spent up to now is        5.2 secs

     total energy              =     -45.88057880 Ry
     Harris-Foulkes estimate   =     -45.88058411 Ry
     estimated scf accuracy    <       0.00000978 Ry

     iteration #  6     ecut=    30.00 Ry     beta= 0.30
     Davidson diagonalization with overlap
     ethr =  6.12E-08,  avg # of iterations =  1.8


     -----------------------------------------------
     Non-local corr. energy    =       0.15230956 Ry
     -----------------------------------------------


     total cpu time spent up to now is        5.3 secs

     total energy              =     -45.88057975 Ry
     Harris-Foulkes estimate   =     -45.88057986 Ry
     estimated scf accuracy    <       0.00000034 Ry

     iteration #  7     ecut=    30.00 Ry     beta= 0.30
     Davidson diagonalization with overlap
     ethr =  2.11E-09,  avg # of iterations =  1.7


     -----------------------------------------------
     Non-local corr. energy    =       0.15228606 Ry
     -----------------------------------------------


     total cpu time spent up to now is        5.4 secs

     total energy              =     -45.88057972 Ry
     Harris-Foulkes estimate   =     -45.88057978 Ry
     estimated scf accuracy    <       0.00000010 Ry

     iteration #  8     ecut=    30.00 Ry     beta= 0.30
     Davidson diagonalization with overlap
     ethr =  6.33E-10,  avg # of iterations =  2.0


     -----------------------------------------------
     Non-local corr. energy    =       0.15229368 Ry
     -----------------------------------------------


     total cpu time spent up to now is        5.5 secs

     total energy              =     -45.88057974 Ry
     Harris-Foulkes estimate   =     -45.88057975 Ry
     estimated scf accuracy    <       0.00000002 Ry

     iteration #  9     ecut=    30.00 Ry     beta= 0.30
     Davidson diagonalization with overlap
     ethr =  1.12E-10,  avg # of iterations =  2.0


     -----------------------------------------------
     Non-local corr. energy    =       0.15229372 Ry
     -----------------------------------------------


     total cpu time spent up to now is        5.6 secs

     End of self-consistent calculation

          k = 0.1252 0.2168 0.0926 (   626 PWs)   bands (ev):

   -11.4358 -11.2287   0.1479   0.7111   0.7437   1.4958   1.7981   1.8207
    13.5878  15.1080  15.4017  16.2936

     occupation numbers 
     1.0000   1.0000   1.0000   1.0000   1.0000   1.0000   1.0000   1.0000
     0.0000   0.0000   0.0000   0.0000

          k = 0.1252 0.5058 0.0926 (   635 PWs)   bands (ev):

    -7.9366  -7.7821  -5.0261  -4.9104  -0.4695  -0.4108   4.0775   4.9501
     9.0643   9.6403  15.9748  16.2924

     occupation numbers 
     1.0000   1.0000   1.0000   1.0000   1.0000   1.0000   1.0000   1.0000
     0.0000   0.0000   0.0000   0.0000

          k = 0.1252-0.3613 0.0926 (   638 PWs)   bands (ev):

    -9.9953  -9.8078  -2.0568  -1.9766   0.2952   0.3440   1.8517   3.0823
    12.0233  12.5119  15.2808  16.3402

     occupation numbers 
     1.0000   1.0000   1.0000   1.0000   1.0000   1.0000   1.0000   1.0000
     0.0000   0.0000   0.0000   0.0000

          k = 0.1252-0.0723 0.0926 (   616 PWs)   bands (ev):

   -12.1680 -11.9509  -0.7345   0.6595   2.4876   2.5226   3.1573   3.1828
    12.7190  15.4708  15.5857  16.9761

     occupation numbers 
     1.0000   1.0000   1.0000   1.0000   1.0000   1.0000   1.0000   1.0000
     0.0000   0.0000   0.0000   0.0000

          k = 0.3755 0.6503 0.0926 (   638 PWs)   bands (ev):

    -6.3540  -6.2779  -5.4201  -5.3905  -2.7178  -2.6455   5.7543   6.2472
     8.0217   8.1407  18.0084  18.1158

     occupation numbers 
     1.0000   1.0000   1.0000   1.0000   1.0000   1.0000   1.0047   0.9953
     0.0000   0.0000   0.0000   0.0000

          k = 0.3755-0.2168 0.0926 (   632 PWs)   bands (ev):

    -9.2894  -9.1118  -3.7326  -3.6232   0.8760   0.9155   2.6324   3.7618
    10.5394  11.2505  14.6490  14.8954

     occupation numbers 
     1.0000   1.0000   1.0000   1.0000   1.0000   1.0000   1.0000   1.0000
     0.0000   0.0000   0.0000   0.0000

     the Fermi energy is     6.4945 ev

!    total energy              =     -45.88057975 Ry
     Harris-Foulkes estimate   =     -45.88057975 Ry
     estimated scf accuracy    <          9.3E-12 Ry

     The total energy is the sum of the following terms:

     one-electron contribution =     -10.62216700 Ry
     hartree contribution      =      13.36618914 Ry
     xc contribution           =     -14.40720020 Ry
     ewald contribution        =     -34.21785756 Ry
     smearing contrib. (-TS)   =       0.00045587 Ry

     convergence has been achieved in   9 iterations

     Forces acting on atoms (cartesian axes, Ry/au):

     atom    1 type  1   force =     0.00000000    0.00000000    0.00000000
     atom    2 type  1   force =     0.00000000    0.00000000    0.00000000
     atom    3 type  1   force =     0.00000000    0.00000000    0.00000000
     atom    4 type  1   force =    -0.00000000   -0.00000000   -0.00000000
     The non-local contrib.  to forces
     atom    1 type  1   force =     0.00000000   -0.00000000   -0.00000000
     atom    2 type  1   force =     0.00000000   -0.00000000   -0.00000000
     atom    3 type  1   force =    -0.00000000   -0.00000000   -0.00000000
     atom    4 type  1   force =    -0.00000000    0.00000000    0.00000000
     The ionic contribution  to forces
     atom    1 type  1   force =     0.00000854   -0.00000493   -0.00000000
     atom    2 type  1   force =    -0.00000857    0.00000495   -0.00000000
     atom    3 type  1   force =    -0.00000854    0.00000493    0.00000000
     atom    4 type  1   force =     0.00000857   -0.00000495    0.00000000
     The local contribution  to forces
     atom    1 type  1   force =     0.00000000    0.00000000   -0.00000000
     atom    2 type  1   force =    -0.00000820    0.00000474   -0.00000000
     atom    3 type  1   force =     0.00000000   -0.00000000    0.00000000
     atom    4 type  1   force =     0.00000820   -0.00000474    0.00000000
     The core correction contribution to forces
     atom    1 type  1   force =     0.00000000    0.00000000    0.00000000
     atom    2 type  1   force =     0.00000000    0.00000000    0.00000000
     atom    3 type  1   force =     0.00000000    0.00000000    0.00000000
     atom    4 type  1   force =     0.00000000    0.00000000    0.00000000
     The Hubbard contrib.    to forces
     atom    1 type  1   force =     0.00000000    0.00000000    0.00000000
     atom    2 type  1   force =     0.00000000    0.00000000    0.00000000
     atom    3 type  1   force =     0.00000000    0.00000000    0.00000000
     atom    4 type  1   force =     0.00000000    0.00000000    0.00000000
     The SCF correction term to forces
     atom    1 type  1   force =     0.00000000   -0.00000000    0.00000000
     atom    2 type  1   force =     0.00000000   -0.00000000    0.00000000
     atom    3 type  1   force =    -0.00000000    0.00000000    0.00000000
     atom    4 type  1   force =    -0.00000000    0.00000000    0.00000000

     Total force =     0.000000     Total SCF correction =     0.000000


     Computing stress (Cartesian axis) and pressure

          total   stress  (Ry/bohr**3)                   (kbar)     P=   11.49
   0.00004475   0.00000000   0.00000000          6.58      0.00      0.00
   0.00000000   0.00004475  -0.00000000          0.00      6.58     -0.00
   0.00000000  -0.00000000   0.00014486          0.00     -0.00     21.31

     kinetic stress (kbar)  10720.10      0.00      0.00
                                0.00  10720.10      0.00
                                0.00      0.00  12425.53

     local   stress (kbar) -18119.29      0.01     -0.00
                                0.01 -18119.27      0.00
                               -0.00      0.00  25205.30

     nonloc. stress (kbar)   -466.73      0.00     -0.00
                               -0.00   -466.73     -0.00
                               -0.00     -0.00   -466.03

     hartree stress (kbar)   7267.51     -0.00      0.00
                               -0.00   7267.51     -0.00
                                0.00     -0.00  -6201.16

     exc-cor stress (kbar)  -2748.51      0.00      0.00
                                0.00  -2748.51     -0.00
                                0.00     -0.00  -2991.83

     corecor stress (kbar)      0.00      0.00      0.00
                                0.00      0.00      0.00
                                0.00      0.00      0.00

     ewald   stress (kbar)   3346.19     -0.02      0.00
                               -0.02   3346.16      0.00
                                0.00      0.00 -28027.30

     hubbard stress (kbar)      0.00      0.00      0.00
                                0.00      0.00      0.00
                                0.00      0.00      0.00

     london  stress (kbar)      0.00      0.00      0.00
                                0.00      0.00      0.00
                                0.00      0.00      0.00

     DFT-D3  stress (kbar)      0.00      0.00      0.00
                                0.00      0.00      0.00
                                0.00      0.00      0.00

     XDM     stress (kbar)      0.00      0.00      0.00
                                0.00      0.00      0.00
                                0.00      0.00      0.00

     dft-nl  stress (kbar)      7.31     -0.00      0.00
                               -0.00      7.31      0.00
                                0.00      0.00     76.81

     TS-vdW  stress (kbar)      0.00      0.00      0.00
                                0.00      0.00      0.00
                                0.00      0.00      0.00



     number of scf cycles    =   4
     number of bfgs steps    =   3

     enthalpy old            =     -45.8798182966 Ry
     enthalpy new            =     -45.8805797485 Ry

     CASE: enthalpy_new < enthalpy_old

     new trust radius        =       0.0800622486 bohr
     new conv_thr            =            1.0E-11 Ry

     new unit-cell volume =    242.32876 a.u.^3 (    35.90942 Ang^3 )
     density =      2.22167 g/cm^3

CELL_PARAMETERS (alat=  4.66006464)
   0.999267021  -0.000000000   0.000000000
  -0.499633511   0.865390626   0.000000000
  -0.000000000  -0.000000000   2.769079291

ATOMIC_POSITIONS (crystal)
C       -0.000000000   1.000000000   0.750000000
C        0.666667000   0.333333000   0.750000000
C       -0.000000000   1.000000000   0.250000000
C        0.333333000   0.666667000   0.250000000



     Writing output data file graphite.save/
     NEW-OLD atomic charge density approx. for the potential


     -----------------------------------------------
     Non-local corr. energy    =       0.15780311 Ry
     -----------------------------------------------

     extrapolated charge   16.42228, renormalised to   16.00000

     total cpu time spent up to now is        6.0 secs

     Self-consistent Calculation

     iteration #  1     ecut=    30.00 Ry     beta= 0.30
     Davidson diagonalization with overlap
     ethr =  1.00E-06,  avg # of iterations =  7.2


     -----------------------------------------------
     Non-local corr. energy    =       0.15316941 Ry
     -----------------------------------------------


     total cpu time spent up to now is        6.1 secs

     total energy              =     -45.87417967 Ry
     Harris-Foulkes estimate   =     -45.62105139 Ry
     estimated scf accuracy    <       0.00303168 Ry

     iteration #  2     ecut=    30.00 Ry     beta= 0.30
     Davidson diagonalization with overlap
     ethr =  1.89E-05,  avg # of iterations =  3.8


     -----------------------------------------------
     Non-local corr. energy    =       0.15365766 Ry
     -----------------------------------------------


     total cpu time spent up to now is        6.2 secs

     total energy              =     -45.88146304 Ry
     Harris-Foulkes estimate   =     -45.88177579 Ry
     estimated scf accuracy    <       0.00141755 Ry

     iteration #  3     ecut=    30.00 Ry     beta= 0.30
     Davidson diagonalization with overlap
     ethr =  8.86E-06,  avg # of iterations =  1.2


     -----------------------------------------------
     Non-local corr. energy    =       0.15540150 Ry
     -----------------------------------------------


     total cpu time spent up to now is        6.3 secs

     total energy              =     -45.88097914 Ry
     Harris-Foulkes estimate   =     -45.88148342 Ry
     estimated scf accuracy    <       0.00077063 Ry

     iteration #  4     ecut=    30.00 Ry     beta= 0.30
     Davidson diagonalization with overlap
     ethr =  4.82E-06,  avg # of iterations =  2.7


     -----------------------------------------------
     Non-local corr. energy    =       0.15516468 Ry
     -----------------------------------------------


     total cpu time spent up to now is        6.4 secs

     total energy              =     -45.88115719 Ry
     Harris-Foulkes estimate   =     -45.88118960 Ry
     estimated scf accuracy    <       0.00008572 Ry

     iteration #  5     ecut=    30.00 Ry     beta= 0.30
     Davidson diagonalization with overlap
     ethr =  5.36E-07,  avg # of iterations =  1.0


     -----------------------------------------------
     Non-local corr. energy    =       0.15491468 Ry
     -----------------------------------------------


     total cpu time spent up to now is        6.5 secs

     total energy              =     -45.88114648 Ry
     Harris-Foulkes estimate   =     -45.88116052 Ry
     estimated scf accuracy    <       0.00002340 Ry

     iteration #  6     ecut=    30.00 Ry     beta= 0.30
     Davidson diagonalization with overlap
     ethr =  1.46E-07,  avg # of iterations =  2.0


     -----------------------------------------------
     Non-local corr. energy    =       0.15493723 Ry
[...]

     number of k points=     6  Marzari-Vanderbilt smearing, width (Ry)=  0.0200
                       cart. coord. in units 2pi/alat
        k(    1) = (   0.1250808   0.2166462   0.0893358), wk =   0.2500000
        k(    2) = (   0.1250808   0.5055079   0.0893358), wk =   0.5000000
        k(    3) = (   0.1250808  -0.3610771   0.0893358), wk =   0.5000000
        k(    4) = (   0.1250808  -0.0722154   0.0893358), wk =   0.2500000
        k(    5) = (   0.3752423   0.6499387   0.0893358), wk =   0.2500000
        k(    6) = (   0.3752423  -0.2166462   0.0893358), wk =   0.2500000

                       cryst. coord.
        k(    1) = (   0.1250000   0.1250000   0.2500000), wk =   0.2500000
        k(    2) = (   0.1250000   0.3750000   0.2500000), wk =   0.5000000
        k(    3) = (   0.1250000  -0.3750000   0.2500000), wk =   0.5000000
        k(    4) = (   0.1250000  -0.1250000   0.2500000), wk =   0.2500000
        k(    5) = (   0.3750000   0.3750000   0.2500000), wk =   0.2500000
        k(    6) = (   0.3750000  -0.3750000   0.2500000), wk =   0.2500000

     Dense  grid:    15413 G-vectors     FFT dimensions: (  24,  24,  72)

     Smooth grid:     5415 G-vectors     FFT dimensions: (  18,  18,  48)

     Dynamical RAM for                 wfc:       0.06 MB

     Dynamical RAM for     wfc (w. buffer):       0.44 MB

     Dynamical RAM for           str. fact:       0.12 MB

     Dynamical RAM for           local pot:       0.05 MB

     Dynamical RAM for          nlocal pot:       0.17 MB

     Dynamical RAM for                qrad:       0.53 MB

     Dynamical RAM for          rho,v,vnew:       0.83 MB

     Dynamical RAM for               rhoin:       0.28 MB

     Dynamical RAM for            rho*nmix:       1.88 MB

     Dynamical RAM for           G-vectors:       0.46 MB

     Dynamical RAM for          h,s,v(r/c):       0.11 MB

     Dynamical RAM for          <psi|beta>:       0.01 MB

     Dynamical RAM for                 psi:       0.25 MB

     Dynamical RAM for                hpsi:       0.25 MB

     Dynamical RAM for                spsi:       0.25 MB

     Dynamical RAM for      wfcinit/wfcrot:       0.17 MB

     Dynamical RAM for           addusdens:       5.53 MB

     Dynamical RAM for          addusforce:       6.30 MB

     Dynamical RAM for         addusstress:       5.88 MB

     Estimated static dynamical RAM per process >       5.78 MB

     Estimated max dynamical RAM per process >      12.07 MB

     Estimated total dynamical RAM >      24.14 MB

     Initial potential from superposition of free atoms

     starting charge   15.99979, renormalised to   16.00000


     -----------------------------------------------
     Non-local corr. energy    =       0.12373561 Ry
     -----------------------------------------------

     Starting wfcs are   16 randomized atomic wfcs

     total cpu time spent up to now is       10.1 secs

     Self-consistent Calculation

     iteration #  1     ecut=    30.00 Ry     beta= 0.30
     Davidson diagonalization with overlap
     ethr =  1.00E-06,  avg # of iterations = 10.3


     -----------------------------------------------
     Non-local corr. energy    =       0.13678051 Ry
     -----------------------------------------------


     total cpu time spent up to now is       10.3 secs

     total energy              =     -45.92372536 Ry
     Harris-Foulkes estimate   =     -46.05842618 Ry
     estimated scf accuracy    <       0.43271597 Ry

     iteration #  2     ecut=    30.00 Ry     beta= 0.30
     Davidson diagonalization with overlap
     ethr =  2.70E-03,  avg # of iterations =  1.0


     -----------------------------------------------
     Non-local corr. energy    =       0.15647960 Ry
     -----------------------------------------------


     total cpu time spent up to now is       10.4 secs

     total energy              =     -45.85815832 Ry
     Harris-Foulkes estimate   =     -45.93478771 Ry
     estimated scf accuracy    <       0.14725310 Ry

     iteration #  3     ecut=    30.00 Ry     beta= 0.30
     Davidson diagonalization with overlap
     ethr =  9.20E-04,  avg # of iterations =  2.7


     -----------------------------------------------
     Non-local corr. energy    =       0.15424710 Ry
     -----------------------------------------------


     total cpu time spent up to now is       10.5 secs

     total energy              =     -45.88142401 Ry
     Harris-Foulkes estimate   =     -45.88100980 Ry
     estimated scf accuracy    <       0.00273931 Ry

     iteration #  4     ecut=    30.00 Ry     beta= 0.30
     Davidson diagonalization with overlap
     ethr =  1.71E-05,  avg # of iterations =  3.7


     -----------------------------------------------
     Non-local corr. energy    =       0.15581529 Ry
     -----------------------------------------------


     total cpu time spent up to now is       10.6 secs

     total energy              =     -45.88155262 Ry
     Harris-Foulkes estimate   =     -45.88195219 Ry
     estimated scf accuracy    <       0.00085931 Ry

     iteration #  5     ecut=    30.00 Ry     beta= 0.30
     Davidson diagonalization with overlap
     ethr =  5.37E-06,  avg # of iterations =  2.5


     -----------------------------------------------
     Non-local corr. energy    =       0.15591270 Ry
     -----------------------------------------------


     total cpu time spent up to now is       10.7 secs

     total energy              =     -45.88168169 Ry
     Harris-Foulkes estimate   =     -45.88167497 Ry
     estimated scf accuracy    <       0.00000243 Ry

     iteration #  6     ecut=    30.00 Ry     beta= 0.30
     Davidson diagonalization with overlap
     ethr =  1.52E-08,  avg # of iterations =  2.5


     -----------------------------------------------
     Non-local corr. energy    =       0.15591637 Ry
     -----------------------------------------------


     total cpu time spent up to now is       10.9 secs

     total energy              =     -45.88168492 Ry
     Harris-Foulkes estimate   =     -45.88168318 Ry
     estimated scf accuracy    <       0.00000087 Ry

     iteration #  7     ecut=    30.00 Ry     beta= 0.30
     Davidson diagonalization with overlap
     ethr =  5.42E-09,  avg # of iterations =  2.0


     -----------------------------------------------
     Non-local corr. energy    =       0.15593139 Ry
     -----------------------------------------------


     total cpu time spent up to now is       11.0 secs

     total energy              =     -45.88168544 Ry
     Harris-Foulkes estimate   =     -45.88168501 Ry
     estimated scf accuracy    <       0.00000029 Ry

     iteration #  8     ecut=    30.00 Ry     beta= 0.30
     Davidson diagonalization with overlap
     ethr =  1.79E-09,  avg # of iterations =  1.0


     -----------------------------------------------
     Non-local corr. energy    =       0.15592704 Ry
     -----------------------------------------------


     total cpu time spent up to now is       11.1 secs

     total energy              =     -45.88168570 Ry
     Harris-Foulkes estimate   =     -45.88168545 Ry
     estimated scf accuracy    <          4.4E-09 Ry

     iteration #  9     ecut=    30.00 Ry     beta= 0.30
     Davidson diagonalization with overlap
     ethr =  2.75E-11,  avg # of iterations =  2.2


     -----------------------------------------------
     Non-local corr. energy    =       0.15592639 Ry
     -----------------------------------------------


     total cpu time spent up to now is       11.2 secs

     total energy              =     -45.88168583 Ry
     Harris-Foulkes estimate   =     -45.88168570 Ry
     estimated scf accuracy    <          1.2E-10 Ry

     iteration # 10     ecut=    30.00 Ry     beta= 0.30
     Davidson diagonalization with overlap
     ethr =  7.43E-13,  avg # of iterations =  2.0


     -----------------------------------------------
     Non-local corr. energy    =       0.15592632 Ry
     -----------------------------------------------


     total cpu time spent up to now is       11.3 secs

     total energy              =     -45.88168589 Ry
     Harris-Foulkes estimate   =     -45.88168583 Ry
     estimated scf accuracy    <          5.4E-11 Ry

     iteration # 11     ecut=    30.00 Ry     beta= 0.30
     Davidson diagonalization with overlap
     ethr =  3.38E-13,  avg # of iterations =  2.0


     -----------------------------------------------
     Non-local corr. energy    =       0.15592559 Ry
     -----------------------------------------------


     total cpu time spent up to now is       11.4 secs

     total energy              =     -45.88168592 Ry
     Harris-Foulkes estimate   =     -45.88168589 Ry
     estimated scf accuracy    <          6.6E-11 Ry

     iteration # 12     ecut=    30.00 Ry     beta= 0.30
     Davidson diagonalization with overlap
     ethr =  3.38E-13,  avg # of iterations =  2.0


     -----------------------------------------------
     Non-local corr. energy    =       0.15592531 Ry
     -----------------------------------------------


     total cpu time spent up to now is       11.5 secs

     End of self-consistent calculation

          k = 0.1251 0.2166 0.0893 (   674 PWs)   bands (ev):

   -11.8170 -11.6608  -0.1612   0.2938   0.3171   0.9646   1.3803   1.3962
    12.7835  14.7152  14.9464  15.8316

     occupation numbers 
     1.0000   1.0000   1.0000   1.0000   1.0000   1.0000   1.0000   1.0000
     0.0000   0.0000   0.0000   0.0000

          k = 0.1251 0.5055 0.0893 (   686 PWs)   bands (ev):

    -8.3290  -8.2138  -5.4247  -5.3391  -0.8787  -0.8365   3.7405   4.4634
     8.6829   9.1641  15.5704  15.8194

     occupation numbers 
     1.0000   1.0000   1.0000   1.0000   1.0000   1.0000   1.0000   1.0000
     0.0000   0.0000   0.0000   0.0000

          k = 0.1251-0.3611 0.0893 (   683 PWs)   bands (ev):

   -10.3807 -10.2398  -2.4644  -2.4058  -0.1163  -0.0813   1.5351   2.5600
    11.6470  12.0430  14.5255  15.9221

     occupation numbers 
     1.0000   1.0000   1.0000   1.0000   1.0000   1.0000   1.0000   1.0000
     0.0000   0.0000   0.0000   0.0000

          k = 0.1251-0.0722 0.0893 (   661 PWs)   bands (ev):

   -12.5471 -12.3830  -1.0411   0.1252   2.0688   2.0937   2.7372   2.7551
    11.8955  15.0324  15.1379  15.8049

     occupation numbers 
     1.0000   1.0000   1.0000   1.0000   1.0000   1.0000   1.0000   1.0000
     0.0000   0.0000   0.0000   0.0000

          k = 0.3752 0.6499 0.0893 (   685 PWs)   bands (ev):

    -6.7582  -6.7020  -5.8313  -5.8091  -3.1206  -3.0677   5.4004   5.8050
     7.6051   7.6871  17.5637  17.6423

     occupation numbers 
     1.0000   1.0000   1.0000   1.0000   1.0000   1.0000   1.0159   0.9841
     0.0000   0.0000   0.0000   0.0000

          k = 0.3752-0.2166 0.0893 (   678 PWs)   bands (ev):

    -9.6769  -9.5438  -4.1337  -4.0531   0.4621   0.4899   2.3098   3.2488
    10.1749  10.7610  14.2404  14.4226

     occupation numbers 
     1.0000   1.0000   1.0000   1.0000   1.0000   1.0000   1.0000   1.0000
     0.0000   0.0000   0.0000   0.0000

     the Fermi energy is     6.0447 ev

!    total energy              =     -45.88168595 Ry
     Harris-Foulkes estimate   =     -45.88168592 Ry
     estimated scf accuracy    <          4.4E-12 Ry

     The total energy is the sum of the following terms:

     one-electron contribution =     -13.44865308 Ry
     hartree contribution      =      14.52765665 Ry
     xc contribution           =     -14.39526186 Ry
     ewald contribution        =     -32.56597410 Ry
     smearing contrib. (-TS)   =       0.00054644 Ry

     convergence has been achieved in  12 iterations

     Forces acting on atoms (cartesian axes, Ry/au):

     atom    1 type  1   force =     0.00000000    0.00000000    0.00000000
     atom    2 type  1   force =    -0.00000000   -0.00000000   -0.00000000
     atom    3 type  1   force =    -0.00000000   -0.00000000   -0.00000000
     atom    4 type  1   force =     0.00000000    0.00000000    0.00000000
     The non-local contrib.  to forces
     atom    1 type  1   force =    -0.00000000   -0.00000000   -0.00000000
     atom    2 type  1   force =     0.00000000    0.00000000    0.00000000
     atom    3 type  1   force =    -0.00000000   -0.00000000   -0.00000000
     atom    4 type  1   force =     0.00000000    0.00000000    0.00000000
     The ionic contribution  to forces
     atom    1 type  1   force =     0.00000853   -0.00000493   -0.00000000
     atom    2 type  1   force =    -0.00000855    0.00000494   -0.00000000
     atom    3 type  1   force =    -0.00000853    0.00000493    0.00000000
     atom    4 type  1   force =     0.00000855   -0.00000494    0.00000000
     The local contribution  to forces
     atom    1 type  1   force =    -0.00000000    0.00000000   -0.00000000
     atom    2 type  1   force =    -0.00000821    0.00000474   -0.00000000
     atom    3 type  1   force =     0.00000000   -0.00000000    0.00000000
     atom    4 type  1   force =     0.00000821   -0.00000474    0.00000000
     The core correction contribution to forces
     atom    1 type  1   force =     0.00000000    0.00000000    0.00000000
     atom    2 type  1   force =     0.00000000    0.00000000    0.00000000
     atom    3 type  1   force =     0.00000000    0.00000000    0.00000000
     atom    4 type  1   force =     0.00000000    0.00000000    0.00000000
     The Hubbard contrib.    to forces
     atom    1 type  1   force =     0.00000000    0.00000000    0.00000000
     atom    2 type  1   force =     0.00000000    0.00000000    0.00000000
     atom    3 type  1   force =     0.00000000    0.00000000    0.00000000
     atom    4 type  1   force =     0.00000000    0.00000000    0.00000000
     The SCF correction term to forces
     atom    1 type  1   force =    -0.00000000    0.00000000   -0.00000000
     atom    2 type  1   force =     0.00000000   -0.00000000   -0.00000000
     atom    3 type  1   force =     0.00000000   -0.00000000    0.00000000
     atom    4 type  1   force =    -0.00000000    0.00000000    0.00000000

     Total force =     0.000000     Total SCF correction =     0.000000


     Computing stress (Cartesian axis) and pressure

          total   stress  (Ry/bohr**3)                   (kbar)     P=    3.47
   0.00000819  -0.00000000   0.00000000          1.20     -0.00      0.00
  -0.00000000   0.00000819  -0.00000000         -0.00      1.20     -0.00
   0.00000000  -0.00000000   0.00005437          0.00     -0.00      8.00

     kinetic stress (kbar)  10316.77      0.00      0.00
                                0.00  10316.77     -0.00
                               -0.00     -0.00  11949.00

     local   stress (kbar) -19123.97      0.01     -0.00
                                0.01 -19123.96     -0.00
                               -0.00     -0.00  25933.30

     nonloc. stress (kbar)   -447.83      0.00     -0.00
                                0.00   -447.83     -0.00
                               -0.00     -0.00   -445.08

     hartree stress (kbar)   7695.84     -0.00     -0.00
                               -0.00   7695.84      0.00
                               -0.00      0.00  -6666.73

     exc-cor stress (kbar)  -2645.54      0.00      0.00
                                0.00  -2645.54      0.00
                                0.00      0.00  -2883.29

     corecor stress (kbar)      0.00      0.00      0.00
                                0.00      0.00      0.00
                                0.00      0.00      0.00

     ewald   stress (kbar)   4199.01     -0.02      0.00
                               -0.02   4198.98      0.00
                                0.00      0.00 -27956.31

     hubbard stress (kbar)      0.00      0.00      0.00
                                0.00      0.00      0.00
                                0.00      0.00      0.00

     london  stress (kbar)      0.00      0.00      0.00
                                0.00      0.00      0.00
                                0.00      0.00      0.00

     DFT-D3  stress (kbar)      0.00      0.00      0.00
                                0.00      0.00      0.00
                                0.00      0.00      0.00

     XDM     stress (kbar)      0.00      0.00      0.00
                                0.00      0.00      0.00
                                0.00      0.00      0.00

     dft-nl  stress (kbar)      6.94      0.00     -0.00
                                0.00      6.94     -0.00
                               -0.00     -0.00     77.12

     TS-vdW  stress (kbar)      0.00      0.00      0.00
                                0.00      0.00      0.00
                                0.00      0.00      0.00



     Writing output data file graphite.save/
 
     init_run     :      0.35s CPU      0.36s WALL (       2 calls)
     electrons    :      8.40s CPU      8.55s WALL (       8 calls)
     update_pot   :      0.82s CPU      0.83s WALL (       6 calls)
     forces       :      0.27s CPU      0.28s WALL (       8 calls)
     stress       :      1.43s CPU      1.43s WALL (       8 calls)

     Called by init_run:
     wfcinit      :      0.04s CPU      0.04s WALL (       2 calls)
     wfcinit:atom :      0.00s CPU      0.00s WALL (      12 calls)
     wfcinit:wfcr :      0.04s CPU      0.04s WALL (      12 calls)
     potinit      :      0.14s CPU      0.14s WALL (       2 calls)
     hinit0       :      0.11s CPU      0.11s WALL (       2 calls)

     Called by electrons:
     c_bands      :      3.39s CPU      3.52s WALL (      79 calls)
     sum_band     :      0.95s CPU      0.96s WALL (      79 calls)
     v_of_rho     :      4.06s CPU      4.07s WALL (      86 calls)
     v_h          :      0.04s CPU      0.03s WALL (      86 calls)
     v_xc         :      4.02s CPU      4.04s WALL (      86 calls)
     newd         :      0.26s CPU      0.27s WALL (      86 calls)
     mix_rho      :      0.06s CPU      0.07s WALL (      79 calls)

     Called by c_bands:
     init_us_2    :      0.06s CPU      0.08s WALL (    1056 calls)
     cegterg      :      3.19s CPU      3.31s WALL (     474 calls)

     Called by sum_band:
     sum_band:bec :      0.00s CPU      0.00s WALL (     474 calls)
     addusdens    :      0.28s CPU      0.28s WALL (      79 calls)

     Called by *egterg:
     h_psi        :      2.61s CPU      2.69s WALL (    1622 calls)
     s_psi        :      0.04s CPU      0.05s WALL (    1622 calls)
     g_psi        :      0.02s CPU      0.02s WALL (    1136 calls)
     cdiaghg      :      0.33s CPU      0.37s WALL (    1568 calls)
     cegterg:over :      0.09s CPU      0.08s WALL (    1136 calls)
     cegterg:upda :      0.06s CPU      0.04s WALL (    1136 calls)
     cegterg:last :      0.02s CPU      0.02s WALL (     494 calls)

     Called by h_psi:
     h_psi:pot    :      2.60s CPU      2.69s WALL (    1622 calls)
     h_psi:calbec :      0.07s CPU      0.06s WALL (    1622 calls)
     vloc_psi     :      2.50s CPU      2.57s WALL (    1622 calls)
     add_vuspsi   :      0.02s CPU      0.05s WALL (    1622 calls)

     General routines
     calbec       :      0.09s CPU      0.10s WALL (    2336 calls)
     fft          :      1.77s CPU      1.78s WALL (    5825 calls)
     ffts         :      0.01s CPU      0.02s WALL (     165 calls)
     fftw         :      2.65s CPU      2.77s WALL (   35970 calls)
     interpolate  :      0.04s CPU      0.04s WALL (      86 calls)
 
     Parallel routines
     fft_scatt_xy :      0.64s CPU      0.61s WALL (   41960 calls)
     fft_scatt_yz :      0.83s CPU      0.85s WALL (   41960 calls)
 
     PWSCF        :     11.48s CPU     11.69s WALL

 
   This run was terminated on:  18:36:43   3Sep2019            

=------------------------------------------------------------------------------=
   JOB DONE.
=------------------------------------------------------------------------------=
