
     Program PWSCF v.6.4.1 starts on  3Sep2019 at 18:44:37 

     This program is part of the open-source Quantum ESPRESSO suite
     for quantum simulation of materials; please cite
         "P. Giannozzi et al., J. Phys.:Condens. Matter 21 395502 (2009);
         "P. Giannozzi et al., J. Phys.:Condens. Matter 29 465901 (2017);
          URL http://www.quantum-espresso.org", 
     in publications or presentations arising from this work. More details at
     http://www.quantum-espresso.org/quote

     Parallel version (MPI), running on     2 processors

     MPI processes distributed on     1 nodes
     R & G space division:  proc/nbgrp/npool/nimage =       2
     Waiting for input...
     Reading input from standard input

     Current dimensions of program PWSCF are:
     Max number of different atomic species (ntypx) = 10
     Max number of k-points (npk) =  40000
     Max angular momentum in pseudopotentials (lmaxx) =  3
               file C.pbe-rrkjus.UPF: wavefunction(s)  2S 2P renormalized

     Subspace diagonalization in iterative solution of the eigenvalue problem:
     a serial algorithm will be used

 
     Parallelization info
     --------------------
     sticks:   dense  smooth     PW     G-vecs:    dense   smooth      PW
     Min         180      93     30                 7166     2525     520
     Max         181      94     31                 7173     2528     525
     Sum         361     187     61                14339     5053    1045
 


     bravais-lattice index     =            4
     lattice parameter (alat)  =       4.6601  a.u.
     unit-cell volume          =     227.8448 (a.u.)^3
     number of atoms/cell      =            4
     number of atomic types    =            1
     number of electrons       =        16.00
     number of Kohn-Sham states=           12
     kinetic-energy cutoff     =      30.0000  Ry
     charge density cutoff     =     240.0000  Ry
     convergence threshold     =      1.0E-09
     mixing beta               =       0.3000
     number of iterations used =            8  plain     mixing
     Exchange-correlation      =  SLA  PW   PBE  PBE ( 1  4  3  4 0 0)
     nstep                     =           50


     celldm(1)=   4.660065  celldm(2)=   0.000000  celldm(3)=   2.599757
     celldm(4)=   0.000000  celldm(5)=   0.000000  celldm(6)=   0.000000

     crystal axes: (cart. coord. in units of alat)
               a(1) = (   1.000000   0.000000   0.000000 )  
               a(2) = (  -0.500000   0.866025   0.000000 )  
               a(3) = (   0.000000   0.000000   2.599757 )  

     reciprocal axes: (cart. coord. in units 2 pi/alat)
               b(1) = (  1.000000  0.577350  0.000000 )  
               b(2) = (  0.000000  1.154701  0.000000 )  
               b(3) = (  0.000000  0.000000  0.384651 )  


     PseudoPot. # 1 for C  read from file:
     ../../../pseudo/C.pbe-rrkjus.UPF
     MD5 check sum: 00fb224312de0c5b6853bd333518df6f
     Pseudo is Ultrasoft, Zval =  4.0
     Generated by new atomic code, or converted to UPF format
     Using radial grid of  627 points,  4 beta functions with: 
                l(1) =   0
                l(2) =   0
                l(3) =   1
                l(4) =   1
     Q(r) pseudized with 0 coefficients 


     atomic species   valence    mass     pseudopotential
        C              4.00    12.01100     C ( 1.00)

     24 Sym. Ops., with inversion, found (12 have fractional translation)


                                    s                        frac. trans.

      isym =  1     identity                                     

 cryst.   s( 1) = (     1          0          0      )
                  (     0          1          0      )
                  (     0          0          1      )

 cart.    s( 1) = (  1.0000000  0.0000000  0.0000000 )
                  (  0.0000000  1.0000000  0.0000000 )
                  (  0.0000000  0.0000000  1.0000000 )


      isym =  2     180 deg rotation - cart. axis [0,0,1]        

 cryst.   s( 2) = (    -1          0          0      )    f =( -0.0000000 )
                  (     0         -1          0      )       ( -0.0000000 )
                  (     0          0          1      )       (  0.5000000 )

 cart.    s( 2) = ( -1.0000000  0.0000000  0.0000000 )    f =(  0.0000000 )
                  (  0.0000000 -1.0000000  0.0000000 )       ( -0.0000000 )
                  (  0.0000000  0.0000000  1.0000000 )       (  1.2998783 )


      isym =  3     180 deg rotation - cart. axis [0,1,0]        

 cryst.   s( 3) = (    -1          0          0      )    f =( -0.0000000 )
                  (     1          1          0      )       (  0.0000000 )
                  (     0          0         -1      )       (  0.5000000 )

 cart.    s( 3) = ( -1.0000000  0.0000000  0.0000000 )    f =( -0.0000000 )
                  (  0.0000000  1.0000000  0.0000000 )       (  0.0000000 )
                  (  0.0000000  0.0000000 -1.0000000 )       (  1.2998783 )


      isym =  4     180 deg rotation - cart. axis [1,0,0]        

 cryst.   s( 4) = (     1          0          0      )
                  (    -1         -1          0      )
                  (     0          0         -1      )

 cart.    s( 4) = (  1.0000000  0.0000000  0.0000000 )
                  (  0.0000000 -1.0000000  0.0000000 )
                  (  0.0000000  0.0000000 -1.0000000 )


      isym =  5      60 deg rotation - cryst. axis [0,0,1]       

 cryst.   s( 5) = (     1          1          0      )    f =(  0.0000000 )
                  (    -1          0          0      )       (  0.0000000 )
                  (     0          0          1      )       (  0.5000000 )

 cart.    s( 5) = (  0.5000000 -0.8660254  0.0000000 )    f =(  0.0000000 )
                  (  0.8660254  0.5000000  0.0000000 )       (  0.0000000 )
                  (  0.0000000  0.0000000  1.0000000 )       (  1.2998783 )


      isym =  6      60 deg rotation - cryst. axis [0,0,-1]      

 cryst.   s( 6) = (     0         -1          0      )    f =(  0.0000000 )
                  (     1          1          0      )       ( -0.0000000 )
                  (     0          0          1      )       (  0.5000000 )

 cart.    s( 6) = (  0.5000000  0.8660254  0.0000000 )    f =(  0.0000000 )
                  ( -0.8660254  0.5000000  0.0000000 )       ( -0.0000000 )
                  (  0.0000000  0.0000000  1.0000000 )       (  1.2998783 )


      isym =  7     120 deg rotation - cryst. axis [0,0,1]       

 cryst.   s( 7) = (     0          1          0      )
                  (    -1         -1          0      )
                  (     0          0          1      )

 cart.    s( 7) = ( -0.5000000 -0.8660254  0.0000000 )
                  (  0.8660254 -0.5000000  0.0000000 )
                  (  0.0000000  0.0000000  1.0000000 )


      isym =  8     120 deg rotation - cryst. axis [0,0,-1]      

 cryst.   s( 8) = (    -1         -1          0      )
                  (     1          0          0      )
                  (     0          0          1      )

 cart.    s( 8) = ( -0.5000000  0.8660254  0.0000000 )
                  ( -0.8660254 -0.5000000  0.0000000 )
                  (  0.0000000  0.0000000  1.0000000 )


      isym =  9     180 deg rotation - cryst. axis [1,-1,0]      

 cryst.   s( 9) = (     0         -1          0      )    f =( -0.0000000 )
                  (    -1          0          0      )       ( -0.0000000 )
                  (     0          0         -1      )       (  0.5000000 )

 cart.    s( 9) = (  0.5000000 -0.8660254  0.0000000 )    f =( -0.0000000 )
                  ( -0.8660254 -0.5000000  0.0000000 )       ( -0.0000000 )
                  (  0.0000000  0.0000000 -1.0000000 )       (  1.2998783 )


      isym = 10     180 deg rotation - cryst. axis [2,1,0]       

 cryst.   s(10) = (     1          1          0      )    f =(  0.0000000 )
                  (     0         -1          0      )       (  0.0000000 )
                  (     0          0         -1      )       (  0.5000000 )

 cart.    s(10) = (  0.5000000  0.8660254  0.0000000 )    f =(  0.0000000 )
                  (  0.8660254 -0.5000000  0.0000000 )       (  0.0000000 )
                  (  0.0000000  0.0000000 -1.0000000 )       (  1.2998783 )


      isym = 11     180 deg rotation - cryst. axis [0,1,0]       

 cryst.   s(11) = (    -1         -1          0      )
                  (     0          1          0      )
                  (     0          0         -1      )

 cart.    s(11) = ( -0.5000000 -0.8660254  0.0000000 )
                  ( -0.8660254  0.5000000  0.0000000 )
                  (  0.0000000  0.0000000 -1.0000000 )


      isym = 12     180 deg rotation - cryst. axis [1,1,0]       

 cryst.   s(12) = (     0          1          0      )
                  (     1          0          0      )
                  (     0          0         -1      )

 cart.    s(12) = ( -0.5000000  0.8660254  0.0000000 )
                  (  0.8660254  0.5000000  0.0000000 )
                  (  0.0000000  0.0000000 -1.0000000 )


      isym = 13     inversion                                    

 cryst.   s(13) = (    -1          0          0      )
                  (     0         -1          0      )
                  (     0          0         -1      )

 cart.    s(13) = ( -1.0000000  0.0000000  0.0000000 )
                  (  0.0000000 -1.0000000  0.0000000 )
                  (  0.0000000  0.0000000 -1.0000000 )


      isym = 14     inv. 180 deg rotation - cart. axis [0,0,1]   

 cryst.   s(14) = (     1          0          0      )    f =(  0.0000000 )
                  (     0          1          0      )       (  0.0000000 )
                  (     0          0         -1      )       (  0.5000000 )

 cart.    s(14) = (  1.0000000  0.0000000  0.0000000 )    f =(  0.0000000 )
                  (  0.0000000  1.0000000  0.0000000 )       (  0.0000000 )
                  (  0.0000000  0.0000000 -1.0000000 )       (  1.2998783 )


      isym = 15     inv. 180 deg rotation - cart. axis [0,1,0]   

 cryst.   s(15) = (     1          0          0      )    f =(  0.0000000 )
                  (    -1         -1          0      )       ( -0.0000000 )
                  (     0          0          1      )       (  0.5000000 )

 cart.    s(15) = (  1.0000000  0.0000000  0.0000000 )    f =(  0.0000000 )
                  (  0.0000000 -1.0000000  0.0000000 )       ( -0.0000000 )
                  (  0.0000000  0.0000000  1.0000000 )       (  1.2998783 )


      isym = 16     inv. 180 deg rotation - cart. axis [1,0,0]   

 cryst.   s(16) = (    -1          0          0      )
                  (     1          1          0      )
                  (     0          0          1      )

 cart.    s(16) = ( -1.0000000  0.0000000  0.0000000 )
                  (  0.0000000  1.0000000  0.0000000 )
                  (  0.0000000  0.0000000  1.0000000 )


      isym = 17     inv.  60 deg rotation - cryst. axis [0,0,1]  

 cryst.   s(17) = (    -1         -1          0      )    f =( -0.0000000 )
                  (     1          0          0      )       ( -0.0000000 )
                  (     0          0         -1      )       (  0.5000000 )

 cart.    s(17) = ( -0.5000000  0.8660254  0.0000000 )    f =(  0.0000000 )
                  ( -0.8660254 -0.5000000  0.0000000 )       ( -0.0000000 )
                  (  0.0000000  0.0000000 -1.0000000 )       (  1.2998783 )


      isym = 18     inv.  60 deg rotation - cryst. axis [0,0,-1] 

 cryst.   s(18) = (     0          1          0      )    f =( -0.0000000 )
                  (    -1         -1          0      )       (  0.0000000 )
                  (     0          0         -1      )       (  0.5000000 )

 cart.    s(18) = ( -0.5000000 -0.8660254  0.0000000 )    f =( -0.0000000 )
                  (  0.8660254 -0.5000000  0.0000000 )       (  0.0000000 )
                  (  0.0000000  0.0000000 -1.0000000 )       (  1.2998783 )


      isym = 19     inv. 120 deg rotation - cryst. axis [0,0,1]  

 cryst.   s(19) = (     0         -1          0      )
                  (     1          1          0      )
                  (     0          0         -1      )

 cart.    s(19) = (  0.5000000  0.8660254  0.0000000 )
                  ( -0.8660254  0.5000000  0.0000000 )
                  (  0.0000000  0.0000000 -1.0000000 )


      isym = 20     inv. 120 deg rotation - cryst. axis [0,0,-1] 

 cryst.   s(20) = (     1          1          0      )
                  (    -1          0          0      )
                  (     0          0         -1      )

 cart.    s(20) = (  0.5000000 -0.8660254  0.0000000 )
                  (  0.8660254  0.5000000  0.0000000 )
                  (  0.0000000  0.0000000 -1.0000000 )


      isym = 21     inv. 180 deg rotation - cryst. axis [1,-1,0] 

 cryst.   s(21) = (     0          1          0      )    f =(  0.0000000 )
                  (     1          0          0      )       (  0.0000000 )
                  (     0          0          1      )       (  0.5000000 )

 cart.    s(21) = ( -0.5000000  0.8660254  0.0000000 )    f =(  0.0000000 )
                  (  0.8660254  0.5000000  0.0000000 )       (  0.0000000 )
                  (  0.0000000  0.0000000  1.0000000 )       (  1.2998783 )


      isym = 22     inv. 180 deg rotation - cryst. axis [2,1,0]  

 cryst.   s(22) = (    -1         -1          0      )    f =( -0.0000000 )
                  (     0          1          0      )       ( -0.0000000 )
                  (     0          0          1      )       (  0.5000000 )

 cart.    s(22) = ( -0.5000000 -0.8660254  0.0000000 )    f =( -0.0000000 )
                  ( -0.8660254  0.5000000  0.0000000 )       ( -0.0000000 )
                  (  0.0000000  0.0000000  1.0000000 )       (  1.2998783 )


      isym = 23     inv. 180 deg rotation - cryst. axis [0,1,0]  

 cryst.   s(23) = (     1          1          0      )
                  (     0         -1          0      )
                  (     0          0          1      )

 cart.    s(23) = (  0.5000000  0.8660254  0.0000000 )
                  (  0.8660254 -0.5000000  0.0000000 )
                  (  0.0000000  0.0000000  1.0000000 )


      isym = 24     inv. 180 deg rotation - cryst. axis [1,1,0]  

 cryst.   s(24) = (     0         -1          0      )
                  (    -1          0          0      )
                  (     0          0          1      )

 cart.    s(24) = (  0.5000000 -0.8660254  0.0000000 )
                  ( -0.8660254 -0.5000000  0.0000000 )
                  (  0.0000000  0.0000000  1.0000000 )


     point group D_6h(6/mmm)
     there are 12 classes
     the character table:

       E     2C6   2C3   C2    3C2'  3C2'' i     2S3   2S6   s_h   3s_d  3s_v 
A_1g   1.00  1.00  1.00  1.00  1.00  1.00  1.00  1.00  1.00  1.00  1.00  1.00
A_2g   1.00  1.00  1.00  1.00 -1.00 -1.00  1.00  1.00  1.00  1.00 -1.00 -1.00
B_1g   1.00 -1.00  1.00 -1.00  1.00 -1.00  1.00 -1.00  1.00 -1.00  1.00 -1.00
B_2g   1.00 -1.00  1.00 -1.00 -1.00  1.00  1.00 -1.00  1.00 -1.00 -1.00  1.00
E_1g   2.00  1.00 -1.00 -2.00  0.00  0.00  2.00  1.00 -1.00 -2.00  0.00  0.00
E_2g   2.00 -1.00 -1.00  2.00  0.00  0.00  2.00 -1.00 -1.00  2.00  0.00  0.00
A_1u   1.00  1.00  1.00  1.00  1.00  1.00 -1.00 -1.00 -1.00 -1.00 -1.00 -1.00
A_2u   1.00  1.00  1.00  1.00 -1.00 -1.00 -1.00 -1.00 -1.00 -1.00  1.00  1.00
B_1u   1.00 -1.00  1.00 -1.00  1.00 -1.00 -1.00  1.00 -1.00  1.00 -1.00  1.00
B_2u   1.00 -1.00  1.00 -1.00 -1.00  1.00 -1.00  1.00 -1.00  1.00  1.00 -1.00
E_1u   2.00  1.00 -1.00 -2.00  0.00  0.00 -2.00 -1.00  1.00  2.00  0.00  0.00
E_2u   2.00 -1.00 -1.00  2.00  0.00  0.00 -2.00  1.00  1.00 -2.00  0.00  0.00

     the symmetry operations in each class and the name of the first element:

     E        1
          identity                                               
     2C6      5    6
           60 deg rotation - cryst. axis [0,0,1]                 
     2C3      7    8
          120 deg rotation - cryst. axis [0,0,1]                 
     C2       2
          180 deg rotation - cart. axis [0,0,1]                  
     3C2'     4   12   11
          180 deg rotation - cart. axis [1,0,0]                  
     3C2''    3    9   10
          180 deg rotation - cart. axis [0,1,0]                  
     i       13
          inversion                                              
     2S3     17   18
          inv.  60 deg rotation - cryst. axis [0,0,1]            
     2S6     19   20
          inv. 120 deg rotation - cryst. axis [0,0,1]            
     s_h     14
          inv. 180 deg rotation - cart. axis [0,0,1]             
     3s_d    16   24   23
          inv. 180 deg rotation - cart. axis [1,0,0]             
     3s_v    15   21   22
          inv. 180 deg rotation - cart. axis [0,1,0]             

   Cartesian axes

     site n.     atom                  positions (alat units)
         1           C   tau(   1) = (  -0.5000000   0.8660254   1.9498175  )
         2           C   tau(   2) = (   0.5000005   0.2886748   1.9498175  )
         3           C   tau(   3) = (  -0.5000000   0.8660254   0.6499392  )
         4           C   tau(   4) = (  -0.0000005   0.5773506   0.6499392  )

   Crystallographic axes

     site n.     atom                  positions (cryst. coord.)
         1           C   tau(   1) = (  0.0000000  1.0000000  0.7500000  )
         2           C   tau(   2) = (  0.6666670  0.3333330  0.7500000  )
         3           C   tau(   3) = (  0.0000000  1.0000000  0.2500000  )
         4           C   tau(   4) = (  0.3333330  0.6666670  0.2500000  )

     number of k points=     6  Marzari-Vanderbilt smearing, width (Ry)=  0.0200
                       cart. coord. in units 2pi/alat
        k(    1) = (   0.1250000   0.2165064   0.0961628), wk =   0.2500000
        k(    2) = (   0.1250000   0.5051815   0.0961628), wk =   0.5000000
        k(    3) = (   0.1250000  -0.3608439   0.0961628), wk =   0.5000000
        k(    4) = (   0.1250000  -0.0721688   0.0961628), wk =   0.2500000
        k(    5) = (   0.3750000   0.6495191   0.0961628), wk =   0.2500000
        k(    6) = (   0.3750000  -0.2165064   0.0961628), wk =   0.2500000

                       cryst. coord.
        k(    1) = (   0.1250000   0.1250000   0.2500000), wk =   0.2500000
        k(    2) = (   0.1250000   0.3750000   0.2500000), wk =   0.5000000
        k(    3) = (   0.1250000  -0.3750000   0.2500000), wk =   0.5000000
        k(    4) = (   0.1250000  -0.1250000   0.2500000), wk =   0.2500000
        k(    5) = (   0.3750000   0.3750000   0.2500000), wk =   0.2500000
        k(    6) = (   0.3750000  -0.3750000   0.2500000), wk =   0.2500000

     Dense  grid:    14339 G-vectors     FFT dimensions: (  24,  24,  60)

     Smooth grid:     5053 G-vectors     FFT dimensions: (  18,  18,  48)

     Dynamical RAM for                 wfc:       0.06 MB

     Dynamical RAM for     wfc (w. buffer):       0.41 MB

     Dynamical RAM for           str. fact:       0.11 MB

     Dynamical RAM for           local pot:       0.00 MB

     Dynamical RAM for          nlocal pot:       0.15 MB

     Dynamical RAM for                qrad:       0.53 MB

     Dynamical RAM for          rho,v,vnew:       0.72 MB

     Dynamical RAM for               rhoin:       0.24 MB

     Dynamical RAM for            rho*nmix:       1.75 MB

     Dynamical RAM for           G-vectors:       0.43 MB

     Dynamical RAM for          h,s,v(r/c):       0.11 MB

     Dynamical RAM for          <psi|beta>:       0.01 MB

     Dynamical RAM for                 psi:       0.23 MB

     Dynamical RAM for                hpsi:       0.23 MB

     Dynamical RAM for                spsi:       0.23 MB

     Dynamical RAM for      wfcinit/wfcrot:       0.16 MB

     Dynamical RAM for           addusdens:       5.14 MB

     Dynamical RAM for          addusforce:       5.86 MB

     Dynamical RAM for         addusstress:       5.47 MB

     Estimated static dynamical RAM per process >       5.22 MB

     Estimated max dynamical RAM per process >      11.08 MB

     Estimated total dynamical RAM >      22.16 MB

     Initial potential from superposition of free atoms

     starting charge   15.99979, renormalised to   16.00000
     Starting wfcs are   16 randomized atomic wfcs

     total cpu time spent up to now is        0.2 secs

     Self-consistent Calculation

     iteration #  1     ecut=    30.00 Ry     beta= 0.30
     Davidson diagonalization with overlap
     ethr =  1.00E-02,  avg # of iterations =  3.2

     total cpu time spent up to now is        0.3 secs

     total energy              =     -45.61356347 Ry
     Harris-Foulkes estimate   =     -45.73644399 Ry
     estimated scf accuracy    <       0.37917395 Ry

     iteration #  2     ecut=    30.00 Ry     beta= 0.30
     Davidson diagonalization with overlap
     ethr =  2.37E-03,  avg # of iterations =  1.0

     total cpu time spent up to now is        0.4 secs

     total energy              =     -45.55337197 Ry
     Harris-Foulkes estimate   =     -45.62348008 Ry
     estimated scf accuracy    <       0.12914368 Ry

     iteration #  3     ecut=    30.00 Ry     beta= 0.30
     Davidson diagonalization with overlap
     ethr =  8.07E-04,  avg # of iterations =  2.7

     total cpu time spent up to now is        0.5 secs

     total energy              =     -45.57190761 Ry
     Harris-Foulkes estimate   =     -45.57195703 Ry
     estimated scf accuracy    <       0.00193122 Ry

     iteration #  4     ecut=    30.00 Ry     beta= 0.30
     Davidson diagonalization with overlap
     ethr =  1.21E-05,  avg # of iterations =  4.5

     total cpu time spent up to now is        0.6 secs

     total energy              =     -45.57207758 Ry
     Harris-Foulkes estimate   =     -45.57221015 Ry
     estimated scf accuracy    <       0.00030681 Ry

     iteration #  5     ecut=    30.00 Ry     beta= 0.30
     Davidson diagonalization with overlap
     ethr =  1.92E-06,  avg # of iterations =  2.0

     total cpu time spent up to now is        0.7 secs

     total energy              =     -45.57212423 Ry
     Harris-Foulkes estimate   =     -45.57212190 Ry
     estimated scf accuracy    <       0.00000283 Ry

     iteration #  6     ecut=    30.00 Ry     beta= 0.30
     Davidson diagonalization with overlap
     ethr =  1.77E-08,  avg # of iterations =  2.2

     total cpu time spent up to now is        0.7 secs

     total energy              =     -45.57212505 Ry
     Harris-Foulkes estimate   =     -45.57212470 Ry
     estimated scf accuracy    <       0.00000041 Ry

     iteration #  7     ecut=    30.00 Ry     beta= 0.30
     Davidson diagonalization with overlap
     ethr =  2.53E-09,  avg # of iterations =  1.7

     total cpu time spent up to now is        0.8 secs

     total energy              =     -45.57212525 Ry
     Harris-Foulkes estimate   =     -45.57212508 Ry
     estimated scf accuracy    <          9.5E-09 Ry

     iteration #  8     ecut=    30.00 Ry     beta= 0.30
     Davidson diagonalization with overlap
     ethr =  5.97E-11,  avg # of iterations =  2.2

     total cpu time spent up to now is        0.9 secs

     End of self-consistent calculation

          k = 0.1250 0.2165 0.0962 (   626 PWs)   bands (ev):

   -11.0014 -10.7214   0.4351   1.2762   1.3232   2.0728   2.3541   2.3873
    14.3561  15.4829  15.8580  16.6419

     occupation numbers 
     1.0000   1.0000   1.0000   1.0000   1.0000   1.0000   1.0000   1.0000
     0.0000   0.0000   0.0000   0.0000

          k = 0.1250 0.5052 0.0962 (   635 PWs)   bands (ev):

    -7.4637  -7.2506  -4.5503  -4.3875   0.0512   0.1365   4.4041   5.4742
     9.4208  10.1296  16.2659  16.6791

     occupation numbers 
     1.0000   1.0000   1.0000   1.0000   1.0000   1.0000   1.0000   1.0000
     0.0000   0.0000   0.0000   0.0000

          k = 0.1250-0.3608 0.0962 (   638 PWs)   bands (ev):

    -9.5484  -9.2933  -1.5354  -1.4209   0.8226   0.8942   2.1481   3.6491
    12.3795  12.9929  15.9848  16.6502

     occupation numbers 
     1.0000   1.0000   1.0000   1.0000   1.0000   1.0000   1.0000   1.0000
     0.0000   0.0000   0.0000   0.0000

          k = 0.1250-0.0722 0.0962 (   616 PWs)   bands (ev):

   -11.7393 -11.4467  -0.4507   1.2404   3.0686   3.1202   3.7487   3.7870
    13.5115  15.8213  15.9640  17.2767

     occupation numbers 
     1.0000   1.0000   1.0000   1.0000   1.0000   1.0000   1.0000   1.0000
     0.0000   0.0000   0.0000   0.0000

          k = 0.3750 0.6495 0.0962 (   638 PWs)   bands (ev):

    -5.8379  -5.7326  -4.9231  -4.8785  -2.2601  -2.1546   6.1028   6.7067
     8.4518   8.6141  18.2611  18.4099

     occupation numbers 
     1.0000   1.0000   1.0000   1.0000   1.0000   1.0000   1.0008   0.9992
     0.0000   0.0000   0.0000   0.0000

          k = 0.3750-0.2165 0.0962 (   632 PWs)   bands (ev):

    -8.8351  -8.5926  -3.2428  -3.0891   1.4321   1.4904   2.9374   4.3183
    10.8675  11.7511  14.9205  15.2601

     occupation numbers 
     1.0000   1.0000   1.0000   1.0000   1.0000   1.0000   1.0000   1.0000
     0.0000   0.0000   0.0000   0.0000

     the Fermi energy is     6.9567 ev

!    total energy              =     -45.57212541 Ry
     Harris-Foulkes estimate   =     -45.57212525 Ry
     estimated scf accuracy    <          5.3E-10 Ry

     The total energy is the sum of the following terms:

     one-electron contribution =      -7.69694180 Ry
     hartree contribution      =      12.04978226 Ry
     xc contribution           =     -14.04938773 Ry
     ewald contribution        =     -35.87599542 Ry
     smearing contrib. (-TS)   =       0.00041727 Ry

     convergence has been achieved in   8 iterations

     Forces acting on atoms (cartesian axes, Ry/au):

     atom    1 type  1   force =     0.00000000    0.00000000    0.00000000
     atom    2 type  1   force =    -0.00000000   -0.00000000    0.00000000
     atom    3 type  1   force =    -0.00000000    0.00000000    0.00000000
     atom    4 type  1   force =     0.00000000   -0.00000000    0.00000000
     The non-local contrib.  to forces
     atom    1 type  1   force =    -0.00000000   -0.00000000    0.00000000
     atom    2 type  1   force =    -0.00000000   -0.00000000    0.00000000
     atom    3 type  1   force =     0.00000000    0.00000000    0.00000000
     atom    4 type  1   force =     0.00000000   -0.00000000    0.00000000
     The ionic contribution  to forces
     atom    1 type  1   force =     0.00000852   -0.00000492   -0.00000000
     atom    2 type  1   force =    -0.00000856    0.00000494   -0.00000000
     atom    3 type  1   force =    -0.00000852    0.00000492    0.00000000
     atom    4 type  1   force =     0.00000856   -0.00000494    0.00000000
     The local contribution  to forces
     atom    1 type  1   force =    -0.00000000    0.00000000   -0.00000000
     atom    2 type  1   force =    -0.00000803    0.00000463   -0.00000000
     atom    3 type  1   force =     0.00000000   -0.00000000    0.00000000
     atom    4 type  1   force =     0.00000803   -0.00000463    0.00000000
     The core correction contribution to forces
     atom    1 type  1   force =     0.00000000    0.00000000    0.00000000
     atom    2 type  1   force =     0.00000000    0.00000000    0.00000000
     atom    3 type  1   force =     0.00000000    0.00000000    0.00000000
     atom    4 type  1   force =     0.00000000    0.00000000    0.00000000
     The Hubbard contrib.    to forces
     atom    1 type  1   force =     0.00000000    0.00000000    0.00000000
     atom    2 type  1   force =     0.00000000    0.00000000    0.00000000
     atom    3 type  1   force =     0.00000000    0.00000000    0.00000000
     atom    4 type  1   force =     0.00000000    0.00000000    0.00000000
     The SCF correction term to forces
     atom    1 type  1   force =     0.00000000   -0.00000000    0.00000000
     atom    2 type  1   force =     0.00000000   -0.00000000   -0.00000000
     atom    3 type  1   force =    -0.00000000    0.00000000    0.00000000
     atom    4 type  1   force =    -0.00000000    0.00000000    0.00000000

     Total force =     0.000000     Total SCF correction =     0.000000


     Computing stress (Cartesian axis) and pressure

          total   stress  (Ry/bohr**3)                   (kbar)     P=    3.60
  -0.00013943  -0.00000000   0.00000000        -20.51     -0.00      0.00
  -0.00000000  -0.00013943   0.00000000         -0.00    -20.51      0.00
   0.00000000   0.00000000   0.00035231          0.00      0.00     51.83

     kinetic stress (kbar)  11017.06      0.00     -0.00
                                0.00  11017.06     -0.00
                               -0.00     -0.00  12794.63

     local   stress (kbar) -16862.70      0.01     -0.00
                                0.01 -16862.69      0.00
                               -0.00      0.00  24154.15

     nonloc. stress (kbar)   -466.71     -0.00      0.00
                               -0.00   -466.71      0.00
                                0.00      0.00   -468.38

     hartree stress (kbar)   6715.21      0.00     -0.00
                                0.00   6715.21     -0.00
                               -0.00     -0.00  -5650.63

     exc-cor stress (kbar)  -2789.17      0.00     -0.00
                                0.00  -2789.17      0.00
                               -0.00      0.00  -2883.49

     corecor stress (kbar)      0.00      0.00      0.00
                                0.00      0.00      0.00
                                0.00      0.00      0.00

     ewald   stress (kbar)   2365.81     -0.03      0.00
                               -0.03   2365.78     -0.00
                                0.00     -0.00 -27894.46

     hubbard stress (kbar)      0.00      0.00      0.00
                                0.00      0.00      0.00
                                0.00      0.00      0.00

     london  stress (kbar)      0.00      0.00      0.00
                                0.00      0.00      0.00
                                0.00      0.00      0.00

     DFT-D3  stress (kbar)      0.00      0.00      0.00
                                0.00      0.00      0.00
                                0.00      0.00      0.00

     XDM     stress (kbar)      0.00      0.00      0.00
                                0.00      0.00      0.00
                                0.00      0.00      0.00

     dft-nl  stress (kbar)      0.00      0.00      0.00
                                0.00      0.00      0.00
                                0.00      0.00      0.00

     TS-vdW  stress (kbar)      0.00      0.00      0.00
                                0.00      0.00      0.00
                                0.00      0.00      0.00



     BFGS Geometry Optimization

     number of scf cycles    =   1
     number of bfgs steps    =   0

     enthalpy new            =     -45.5721254090 Ry

     new trust radius        =       0.0265900856 bohr
     new conv_thr            =       0.0000000010 Ry

     new unit-cell volume =    228.25204 a.u.^3 (    33.82346 Ang^3 )
     density =      2.35869 g/cm^3

CELL_PARAMETERS (alat=  4.66006464)
   0.996514282  -0.000000000   0.000000000
  -0.498257141   0.863006683   0.000000000
   0.000000000   0.000000000   2.622654971

ATOMIC_POSITIONS (crystal)
C        0.000000000   1.000000000   0.750000000
C        0.666667000   0.333333000   0.750000000
C        0.000000000   1.000000000   0.250000000
C        0.333333000   0.666667000   0.250000000



     Writing output data file graphite.save/
     NEW-OLD atomic charge density approx. for the potential
     extrapolated charge   16.02854, renormalised to   16.00000

     total cpu time spent up to now is        1.1 secs

     Self-consistent Calculation

     iteration #  1     ecut=    30.00 Ry     beta= 0.30
     Davidson diagonalization with overlap
     ethr =  1.00E-06,  avg # of iterations =  4.0

     total cpu time spent up to now is        1.2 secs

     total energy              =     -45.57276931 Ry
     Harris-Foulkes estimate   =     -45.56126953 Ry
     estimated scf accuracy    <       0.00003149 Ry

     iteration #  2     ecut=    30.00 Ry     beta= 0.30
     Davidson diagonalization with overlap
     ethr =  1.97E-07,  avg # of iterations =  2.0

     total cpu time spent up to now is        1.3 secs

     total energy              =     -45.57278982 Ry
     Harris-Foulkes estimate   =     -45.57278678 Ry
     estimated scf accuracy    <       0.00004324 Ry

     iteration #  3     ecut=    30.00 Ry     beta= 0.30
     Davidson diagonalization with overlap
     ethr =  1.97E-07,  avg # of iterations =  1.0

     total cpu time spent up to now is        1.3 secs

     total energy              =     -45.57276264 Ry
     Harris-Foulkes estimate   =     -45.57278989 Ry
     estimated scf accuracy    <       0.00005105 Ry

     iteration #  4     ecut=    30.00 Ry     beta= 0.30
     Davidson diagonalization with overlap
     ethr =  1.97E-07,  avg # of iterations =  2.0

     total cpu time spent up to now is        1.4 secs

     total energy              =     -45.57277230 Ry
     Harris-Foulkes estimate   =     -45.57277252 Ry
     estimated scf accuracy    <       0.00000206 Ry

     iteration #  5     ecut=    30.00 Ry     beta= 0.30
     Davidson diagonalization with overlap
     ethr =  1.29E-08,  avg # of iterations =  1.0

     total cpu time spent up to now is        1.4 secs

     total energy              =     -45.57277171 Ry
     Harris-Foulkes estimate   =     -45.57277232 Ry
     estimated scf accuracy    <       0.00000147 Ry

     iteration #  6     ecut=    30.00 Ry     beta= 0.30
     Davidson diagonalization with overlap
     ethr =  9.19E-09,  avg # of iterations =  1.2

     total cpu time spent up to now is        1.5 secs

     total energy              =     -45.57277177 Ry
     Harris-Foulkes estimate   =     -45.57277180 Ry
     estimated scf accuracy    <       0.00000020 Ry

     iteration #  7     ecut=    30.00 Ry     beta= 0.30
     Davidson diagonalization with overlap
     ethr =  1.27E-09,  avg # of iterations =  1.0

     total cpu time spent up to now is        1.5 secs

     total energy              =     -45.57277169 Ry
     Harris-Foulkes estimate   =     -45.57277177 Ry
     estimated scf accuracy    <       0.00000014 Ry

     iteration #  8     ecut=    30.00 Ry     beta= 0.30
     Davidson diagonalization with overlap
     ethr =  8.56E-10,  avg # of iterations =  2.0

     total cpu time spent up to now is        1.6 secs

     End of self-consistent calculation

          k = 0.1254 0.2173 0.0953 (   626 PWs)   bands (ev):

   -11.0904 -10.8294   0.3867   1.2475   1.2903   1.9523   2.3146   2.3447
    14.2000  15.5599  15.9134  16.6948

     occupation numbers 
     1.0000   1.0000   1.0000   1.0000   1.0000   1.0000   1.0000   1.0000
     0.0000   0.0000   0.0000   0.0000

          k = 0.1254 0.5069 0.0953 (   635 PWs)   bands (ev):

    -7.5297  -7.3314  -4.6129  -4.4617  -0.0024   0.0758   4.3846   5.4075
     9.4246  10.1075  16.3640  16.7545

     occupation numbers 
     1.0000   1.0000   1.0000   1.0000   1.0000   1.0000   1.0000   1.0000
     0.0000   0.0000   0.0000   0.0000

          k = 0.1254-0.3621 0.0953 (   638 PWs)   bands (ev):

    -9.6289  -9.3914  -1.5775  -1.4719   0.7732   0.8389   2.1130   3.5475
    12.4231  13.0080  15.8664  16.7351

     occupation numbers 
     1.0000   1.0000   1.0000   1.0000   1.0000   1.0000   1.0000   1.0000
     0.0000   0.0000   0.0000   0.0000

          k = 0.1254-0.0724 0.0953 (   616 PWs)   bands (ev):

   -11.8325 -11.5595  -0.5060   1.1109   3.0461   3.0930   3.7237   3.7583
    13.3414  15.8765  16.0125  17.3397

     occupation numbers 
     1.0000   1.0000   1.0000   1.0000   1.0000   1.0000   1.0000   1.0000
     0.0000   0.0000   0.0000   0.0000

          k = 0.3763 0.6518 0.0953 (   638 PWs)   bands (ev):

    -5.8883  -5.7908  -4.9926  -4.9500  -2.3354  -2.2370   6.0958   6.6711
     8.4397   8.5843  18.2612  18.4158

     occupation numbers 
     1.0000   1.0000   1.0000   1.0000   1.0000   1.0000   1.0013   0.9987
     0.0000   0.0000   0.0000   0.0000

          k = 0.3763-0.2173 0.0953 (   632 PWs)   bands (ev):

    -8.9111  -8.6854  -3.2965  -3.1544   1.3860   1.4388   2.9081   4.2278
    10.8936  11.7406  15.0093  15.3233

     occupation numbers 
     1.0000   1.0000   1.0000   1.0000   1.0000   1.0000   1.0000   1.0000
     0.0000   0.0000   0.0000   0.0000

     the Fermi energy is     6.9208 ev

!    total energy              =     -45.57277171 Ry
     Harris-Foulkes estimate   =     -45.57277171 Ry
     estimated scf accuracy    <          4.4E-10 Ry

     The total energy is the sum of the following terms:

     one-electron contribution =      -8.42487868 Ry
     hartree contribution      =      12.39596429 Ry
     xc contribution           =     -14.07763286 Ry
     ewald contribution        =     -35.46664715 Ry
     smearing contrib. (-TS)   =       0.00042267 Ry

     convergence has been achieved in   8 iterations

     Forces acting on atoms (cartesian axes, Ry/au):

     atom    1 type  1   force =     0.00000000    0.00000000    0.00000000
     atom    2 type  1   force =     0.00000000    0.00000000    0.00000000
     atom    3 type  1   force =    -0.00000000    0.00000000    0.00000000
     atom    4 type  1   force =     0.00000000    0.00000000    0.00000000
     The non-local contrib.  to forces
     atom    1 type  1   force =     0.00000000    0.00000000    0.00000000
     atom    2 type  1   force =    -0.00000000   -0.00000000    0.00000000
     atom    3 type  1   force =    -0.00000000   -0.00000000    0.00000000
     atom    4 type  1   force =     0.00000000   -0.00000000    0.00000000
     The ionic contribution  to forces
     atom    1 type  1   force =     0.00000858   -0.00000495   -0.00000000
     atom    2 type  1   force =    -0.00000861    0.00000497   -0.00000000
     atom    3 type  1   force =    -0.00000858    0.00000495    0.00000000
     atom    4 type  1   force =     0.00000861   -0.00000497    0.00000000
     The local contribution  to forces
     atom    1 type  1   force =    -0.00000000    0.00000000   -0.00000000
     atom    2 type  1   force =    -0.00000798    0.00000461   -0.00000000
     atom    3 type  1   force =     0.00000000   -0.00000000    0.00000000
     atom    4 type  1   force =     0.00000798   -0.00000461    0.00000000
     The core correction contribution to forces
     atom    1 type  1   force =     0.00000000    0.00000000    0.00000000
     atom    2 type  1   force =     0.00000000    0.00000000    0.00000000
     atom    3 type  1   force =     0.00000000    0.00000000    0.00000000
     atom    4 type  1   force =     0.00000000    0.00000000    0.00000000
     The Hubbard contrib.    to forces
     atom    1 type  1   force =     0.00000000    0.00000000    0.00000000
     atom    2 type  1   force =     0.00000000    0.00000000    0.00000000
     atom    3 type  1   force =     0.00000000    0.00000000    0.00000000
     atom    4 type  1   force =     0.00000000    0.00000000    0.00000000
     The SCF correction term to forces
     atom    1 type  1   force =    -0.00000000    0.00000000    0.00000000
     atom    2 type  1   force =    -0.00000000    0.00000000    0.00000000
     atom    3 type  1   force =     0.00000000   -0.00000000    0.00000000
     atom    4 type  1   force =     0.00000000   -0.00000000    0.00000000

     Total force =     0.000000     Total SCF correction =     0.000000


     Computing stress (Cartesian axis) and pressure

          total   stress  (Ry/bohr**3)                   (kbar)     P=   32.04
   0.00016824  -0.00000000   0.00000000         24.75     -0.00      0.00
  -0.00000000   0.00016824   0.00000000         -0.00     24.75      0.00
  -0.00000000  -0.00000000   0.00031695         -0.00     -0.00     46.63

     kinetic stress (kbar)  11041.54      0.00      0.00
                                0.00  11041.54      0.00
                                0.00      0.00  12794.88

     local   stress (kbar) -17398.48      0.01     -0.00
                                0.01 -17398.47      0.00
                               -0.00      0.00  24771.85

     nonloc. stress (kbar)   -474.80     -0.00     -0.00
                               -0.00   -474.80     -0.00
                                0.00      0.00   -474.08

     hartree stress (kbar)   6932.76     -0.00     -0.00
                               -0.00   6932.76      0.00
                               -0.00      0.00  -5876.51

     exc-cor stress (kbar)  -2789.71     -0.00      0.00
                               -0.00  -2789.71     -0.00
                                0.00     -0.00  -2884.92

     corecor stress (kbar)      0.00      0.00      0.00
                                0.00      0.00      0.00
                                0.00      0.00      0.00

     ewald   stress (kbar)   2713.45     -0.03      0.00
                               -0.03   2713.42     -0.00
                                0.00     -0.00 -28284.59

     hubbard stress (kbar)      0.00      0.00      0.00
                                0.00      0.00      0.00
                                0.00      0.00      0.00

     london  stress (kbar)      0.00      0.00      0.00
                                0.00      0.00      0.00
                                0.00      0.00      0.00

     DFT-D3  stress (kbar)      0.00      0.00      0.00
                                0.00      0.00      0.00
                                0.00      0.00      0.00

     XDM     stress (kbar)      0.00      0.00      0.00
                                0.00      0.00      0.00
                                0.00      0.00      0.00

     dft-nl  stress (kbar)      0.00      0.00      0.00
                                0.00      0.00      0.00
                                0.00      0.00      0.00

     TS-vdW  stress (kbar)      0.00      0.00      0.00
                                0.00      0.00      0.00
                                0.00      0.00      0.00



     number of scf cycles    =   2
     number of bfgs steps    =   1

     enthalpy old            =     -45.5721254090 Ry
     enthalpy new            =     -45.5727717138 Ry

     CASE: enthalpy_new < enthalpy_old

     new trust radius        =       0.0791444181 bohr
     new conv_thr            =            1.0E-11 Ry

     new unit-cell volume =    233.98644 a.u.^3 (    34.67321 Ang^3 )
     density =      2.30088 g/cm^3

CELL_PARAMETERS (alat=  4.66006464)
   0.995994725  -0.000000000   0.000000000
  -0.497997362   0.862556734  -0.000000000
   0.000000000   0.000000000   2.691349813

ATOMIC_POSITIONS (crystal)
C        0.000000000   1.000000000   0.750000000
C        0.666667000   0.333333000   0.750000000
C        0.000000000   1.000000000   0.250000000
C        0.333333000   0.666667000   0.250000000



     Writing output data file graphite.save/
     NEW-OLD atomic charge density approx. for the potential
     extrapolated charge   16.39211, renormalised to   16.00000

     total cpu time spent up to now is        1.8 secs

     Self-consistent Calculation

     iteration #  1     ecut=    30.00 Ry     beta= 0.30
     Davidson diagonalization with overlap
     ethr =  1.00E-06,  avg # of iterations =  7.3

     total cpu time spent up to now is        1.9 secs

     total energy              =     -45.56899396 Ry
     Harris-Foulkes estimate   =     -45.37497526 Ry
     estimated scf accuracy    <       0.00212781 Ry

     iteration #  2     ecut=    30.00 Ry     beta= 0.30
     Davidson diagonalization with overlap
     ethr =  1.33E-05,  avg # of iterations =  3.5

     total cpu time spent up to now is        2.0 secs

     total energy              =     -45.57460347 Ry
     Harris-Foulkes estimate   =     -45.57485932 Ry
     estimated scf accuracy    <       0.00121443 Ry

     iteration #  3     ecut=    30.00 Ry     beta= 0.30
     Davidson diagonalization with overlap
     ethr =  7.59E-06,  avg # of iterations =  1.2

     total cpu time spent up to now is        2.0 secs

     total energy              =     -45.57417563 Ry
     Harris-Foulkes estimate   =     -45.57461866 Ry
     estimated scf accuracy    <       0.00068371 Ry

     iteration #  4     ecut=    30.00 Ry     beta= 0.30
     Davidson diagonalization with overlap
     ethr =  4.27E-06,  avg # of iterations =  2.3

     total cpu time spent up to now is        2.1 secs

     total energy              =     -45.57432088 Ry
     Harris-Foulkes estimate   =     -45.57433834 Ry
     estimated scf accuracy    <       0.00004909 Ry

     iteration #  5     ecut=    30.00 Ry     beta= 0.30
     Davidson diagonalization with overlap
     ethr =  3.07E-07,  avg # of iterations =  1.0

     total cpu time spent up to now is        2.2 secs

     total energy              =     -45.57431527 Ry
     Harris-Foulkes estimate   =     -45.57432269 Ry
     estimated scf accuracy    <       0.00001415 Ry

     iteration #  6     ecut=    30.00 Ry     beta= 0.30
     Davidson diagonalization with overlap
     ethr =  8.84E-08,  avg # of iterations =  1.8

     total cpu time spent up to now is        2.2 secs

     total energy              =     -45.57431657 Ry
     Harris-Foulkes estimate   =     -45.57431670 Ry
     estimated scf accuracy    <       0.00000049 Ry

     iteration #  7     ecut=    30.00 Ry     beta= 0.30
     Davidson diagonalization with overlap
     ethr =  3.09E-09,  avg # of iterations =  1.3

     total cpu time spent up to now is        2.3 secs

     total energy              =     -45.57431648 Ry
     Harris-Foulkes estimate   =     -45.57431660 Ry
     estimated scf accuracy    <       0.00000018 Ry

     iteration #  8     ecut=    30.00 Ry     beta= 0.30
     Davidson diagonalization with overlap
     ethr =  1.12E-09,  avg # of iterations =  2.0

     total cpu time spent up to now is        2.3 secs

     total energy              =     -45.57431653 Ry
     Harris-Foulkes estimate   =     -45.57431654 Ry
     estimated scf accuracy    <       0.00000002 Ry

     iteration #  9     ecut=    30.00 Ry     beta= 0.30
     Davidson diagonalization with overlap
     ethr =  1.25E-10,  avg # of iterations =  2.0

     total cpu time spent up to now is        2.4 secs

     total energy              =     -45.57431653 Ry
     Harris-Foulkes estimate   =     -45.57431653 Ry
     estimated scf accuracy    <          8.5E-10 Ry

     iteration # 10     ecut=    30.00 Ry     beta= 0.30
     Davidson diagonalization with overlap
     ethr =  5.32E-12,  avg # of iterations =  1.8

     total cpu time spent up to now is        2.5 secs

     total energy              =     -45.57431653 Ry
     Harris-Foulkes estimate   =     -45.57431653 Ry
     estimated scf accuracy    <          5.9E-11 Ry

     iteration # 11     ecut=    30.00 Ry     beta= 0.30
     Davidson diagonalization with overlap
     ethr =  3.71E-13,  avg # of iterations =  2.0

     total cpu time spent up to now is        2.5 secs

     End of self-consistent calculation

          k = 0.1255 0.2174 0.0929 (   626 PWs)   bands (ev):

   -11.3640 -11.1497   0.1782   0.9630   0.9967   1.5560   2.0265   2.0502
    13.6277  15.3250  15.6242  16.4135

     occupation numbers 
     1.0000   1.0000   1.0000   1.0000   1.0000   1.0000   1.0000   1.0000
     0.0000   0.0000   0.0000   0.0000

          k = 0.1255 0.5072 0.0929 (   635 PWs)   bands (ev):

    -7.8053  -7.6437  -4.8923  -4.7699  -0.2874  -0.2254   4.1638   5.0600
     9.1760   9.7793  16.1258  16.4555

     occupation numbers 
     1.0000   1.0000   1.0000   1.0000   1.0000   1.0000   1.0000   1.0000
     0.0000   0.0000   0.0000   0.0000

          k = 0.1255-0.3623 0.0929 (   638 PWs)   bands (ev):

    -9.9033  -9.7089  -1.8580  -1.7733   0.4875   0.5395   1.9026   3.1628
    12.1905  12.6962  15.3401  16.4833

     occupation numbers 
     1.0000   1.0000   1.0000   1.0000   1.0000   1.0000   1.0000   1.0000
     0.0000   0.0000   0.0000   0.0000

          k = 0.1255-0.0725 0.0929 (   616 PWs)   bands (ev):

   -12.1058 -11.8812  -0.7142   0.7099   2.7624   2.7992   3.4383   3.4652
    12.7513  15.6062  15.7253  17.0303

     occupation numbers 
     1.0000   1.0000   1.0000   1.0000   1.0000   1.0000   1.0000   1.0000
     0.0000   0.0000   0.0000   0.0000

          k = 0.3765 0.6521 0.0929 (   638 PWs)   bands (ev):

    -6.1686  -6.0897  -5.2846  -5.2495  -2.6217  -2.5424   5.8669   6.3684
     8.1584   8.2686  17.9767  18.1082

     occupation numbers 
     1.0000   1.0000   1.0000   1.0000   1.0000   1.0000   1.0042   0.9958
     0.0000   0.0000   0.0000   0.0000

          k = 0.3765-0.2174 0.0929 (   632 PWs)   bands (ev):

    -9.1858  -9.0014  -3.5754  -3.4608   1.0995   1.1407   2.6951   3.8533
    10.6654  11.4058  14.7654  15.0204

     occupation numbers 
     1.0000   1.0000   1.0000   1.0000   1.0000   1.0000   1.0000   1.0000
     0.0000   0.0000   0.0000   0.0000

     the Fermi energy is     6.6161 ev

!    total energy              =     -45.57431653 Ry
     Harris-Foulkes estimate   =     -45.57431653 Ry
     estimated scf accuracy    <          7.5E-12 Ry

     The total energy is the sum of the following terms:

     one-electron contribution =     -10.39284905 Ry
     hartree contribution      =      13.20758858 Ry
     xc contribution           =     -14.07790540 Ry
     ewald contribution        =     -34.31160140 Ry
     smearing contrib. (-TS)   =       0.00045074 Ry

     convergence has been achieved in  11 iterations

     Forces acting on atoms (cartesian axes, Ry/au):

     atom    1 type  1   force =     0.00000000    0.00000000    0.00000000
     atom    2 type  1   force =     0.00000000    0.00000000    0.00000000
     atom    3 type  1   force =     0.00000000    0.00000000    0.00000000
     atom    4 type  1   force =     0.00000000    0.00000000    0.00000000
     The non-local contrib.  to forces
     atom    1 type  1   force =    -0.00000000   -0.00000000    0.00000000
     atom    2 type  1   force =    -0.00000000   -0.00000000    0.00000000
     atom    3 type  1   force =     0.00000000    0.00000000    0.00000000
     atom    4 type  1   force =    -0.00000000   -0.00000000    0.00000000
     The ionic contribution  to forces
     atom    1 type  1   force =     0.00000859   -0.00000496   -0.00000000
     atom    2 type  1   force =    -0.00000862    0.00000497   -0.00000000
     atom    3 type  1   force =    -0.00000859    0.00000496    0.00000000
     atom    4 type  1   force =     0.00000862   -0.00000497    0.00000000
     The local contribution  to forces
     atom    1 type  1   force =     0.00000000    0.00000000   -0.00000000
     atom    2 type  1   force =    -0.00000797    0.00000460   -0.00000000
     atom    3 type  1   force =    -0.00000000   -0.00000000    0.00000000
     atom    4 type  1   force =     0.00000797   -0.00000460    0.00000000
     The core correction contribution to forces
     atom    1 type  1   force =     0.00000000    0.00000000    0.00000000
     atom    2 type  1   force =     0.00000000    0.00000000    0.00000000
     atom    3 type  1   force =     0.00000000    0.00000000    0.00000000
     atom    4 type  1   force =     0.00000000    0.00000000    0.00000000
     The Hubbard contrib.    to forces
     atom    1 type  1   force =     0.00000000    0.00000000    0.00000000
     atom    2 type  1   force =     0.00000000    0.00000000    0.00000000
     atom    3 type  1   force =     0.00000000    0.00000000    0.00000000
     atom    4 type  1   force =     0.00000000    0.00000000    0.00000000
     The SCF correction term to forces
     atom    1 type  1   force =    -0.00000000    0.00000000   -0.00000000
     atom    2 type  1   force =     0.00000000   -0.00000000   -0.00000000
     atom    3 type  1   force =     0.00000000   -0.00000000    0.00000000
     atom    4 type  1   force =    -0.00000000    0.00000000    0.00000000

     Total force =     0.000000     Total SCF correction =     0.000000


     Computing stress (Cartesian axis) and pressure

          total   stress  (Ry/bohr**3)                   (kbar)     P=   31.64
   0.00021332  -0.00000000  -0.00000000         31.38     -0.00     -0.00
  -0.00000000   0.00021332   0.00000000         -0.00     31.38      0.00
  -0.00000000   0.00000000   0.00021853         -0.00      0.00     32.15

     kinetic stress (kbar)  10776.49      0.00     -0.00
                                0.00  10776.49      0.00
                               -0.00      0.00  12476.80

     local   stress (kbar) -18216.30      0.01      0.00
                                0.01 -18216.29      0.00
                                0.00      0.00  25418.02

     nonloc. stress (kbar)   -465.16      0.00      0.00
                                0.00   -465.16      0.00
                                0.00      0.00   -464.23

     hartree stress (kbar)   7273.18     -0.00      0.00
                               -0.00   7273.18      0.00
                                0.00      0.00  -6242.87

     exc-cor stress (kbar)  -2720.95     -0.00      0.00
                               -0.00  -2720.95     -0.00
                                0.00     -0.00  -2815.97

     corecor stress (kbar)      0.00      0.00      0.00
                                0.00      0.00      0.00
                                0.00      0.00      0.00

     ewald   stress (kbar)   3384.13     -0.03     -0.00
                               -0.03   3384.10     -0.00
                               -0.00     -0.00 -28339.61

     hubbard stress (kbar)      0.00      0.00      0.00
                                0.00      0.00      0.00
                                0.00      0.00      0.00

     london  stress (kbar)      0.00      0.00      0.00
                                0.00      0.00      0.00
                                0.00      0.00      0.00

     DFT-D3  stress (kbar)      0.00      0.00      0.00
                                0.00      0.00      0.00
                                0.00      0.00      0.00

     XDM     stress (kbar)      0.00      0.00      0.00
                                0.00      0.00      0.00
                                0.00      0.00      0.00

     dft-nl  stress (kbar)      0.00      0.00      0.00
                                0.00      0.00      0.00
                                0.00      0.00      0.00

     TS-vdW  stress (kbar)      0.00      0.00      0.00
                                0.00      0.00      0.00
                                0.00      0.00      0.00



     number of scf cycles    =   3
     number of bfgs steps    =   2

     enthalpy old            =     -45.5727717138 Ry
     enthalpy new            =     -45.5743165342 Ry

     CASE: enthalpy_new < enthalpy_old

     new trust radius        =       0.1171306533 bohr
     new conv_thr            =            1.0E-11 Ry

     new unit-cell volume =    243.63121 a.u.^3 (    36.10242 Ang^3 )
     density =      2.20979 g/cm^3

CELL_PARAMETERS (alat=  4.66006464)
   0.997400458  -0.000000000   0.000000000
  -0.498700229   0.863774134  -0.000000000
  -0.000000000   0.000000000   2.794392075

ATOMIC_POSITIONS (crystal)
C       -0.000000000   1.000000000   0.750000000
C        0.666667000   0.333333000   0.750000000
C       -0.000000000   1.000000000   0.250000000
C        0.333333000   0.666667000   0.250000000



     Writing output data file graphite.save/
     NEW-OLD atomic charge density approx. for the potential
     extrapolated charge   16.63339, renormalised to   16.00000

     total cpu time spent up to now is        2.7 secs

     Self-consistent Calculation

     iteration #  1     ecut=    30.00 Ry     beta= 0.30
     Davidson diagonalization with overlap
     ethr =  1.00E-06,  avg # of iterations =  9.0

     total cpu time spent up to now is        2.8 secs

     total energy              =     -45.55977649 Ry
     Harris-Foulkes estimate   =     -45.15704535 Ry
     estimated scf accuracy    <       0.00690469 Ry

     iteration #  2     ecut=    30.00 Ry     beta= 0.30
     Davidson diagonalization with overlap
     ethr =  4.32E-05,  avg # of iterations =  4.3

     total cpu time spent up to now is        2.9 secs

     total energy              =     -45.57656687 Ry
     Harris-Foulkes estimate   =     -45.57729958 Ry
     estimated scf accuracy    <       0.00331072 Ry

     iteration #  3     ecut=    30.00 Ry     beta= 0.30
     Davidson diagonalization with overlap
     ethr =  2.07E-05,  avg # of iterations =  1.0

     total cpu time spent up to now is        3.0 secs

     total energy              =     -45.57542323 Ry
     Harris-Foulkes estimate   =     -45.57661226 Ry
     estimated scf accuracy    <       0.00180870 Ry

     iteration #  4     ecut=    30.00 Ry     beta= 0.30
     Davidson diagonalization with overlap
     ethr =  1.13E-05,  avg # of iterations =  2.3

     total cpu time spent up to now is        3.0 secs

     total energy              =     -45.57580869 Ry
     Harris-Foulkes estimate   =     -45.57584898 Ry
     estimated scf accuracy    <       0.00011310 Ry

     iteration #  5     ecut=    30.00 Ry     beta= 0.30
     Davidson diagonalization with overlap
     ethr =  7.07E-07,  avg # of iterations =  1.3

     total cpu time spent up to now is        3.1 secs

     total energy              =     -45.57579498 Ry
     Harris-Foulkes estimate   =     -45.57581301 Ry
     estimated scf accuracy    <       0.00003259 Ry

     iteration #  6     ecut=    30.00 Ry     beta= 0.30
     Davidson diagonalization with overlap
     ethr =  2.04E-07,  avg # of iterations =  2.0

     total cpu time spent up to now is        3.2 secs

     total energy              =     -45.57579896 Ry
     Harris-Foulkes estimate   =     -45.57579889 Ry
     estimated scf accuracy    <       0.00000047 Ry

     iteration #  7     ecut=    30.00 Ry     beta= 0.30
     Davidson diagonalization with overlap
     ethr =  2.91E-09,  avg # of iterations =  2.0

     total cpu time spent up to now is        3.2 secs

     total energy              =     -45.57579871 Ry
     Harris-Foulkes estimate   =     -45.57579901 Ry
     estimated scf accuracy    <       0.00000049 Ry

     iteration #  8     ecut=    30.00 Ry     beta= 0.30
     Davidson diagonalization with overlap
     ethr =  2.91E-09,  avg # of iterations =  2.0

     total cpu time spent up to now is        3.3 secs

     total energy              =     -45.57579881 Ry
     Harris-Foulkes estimate   =     -45.57579881 Ry
     estimated scf accuracy    <          7.7E-09 Ry

     iteration #  9     ecut=    30.00 Ry     beta= 0.30
     Davidson diagonalization with overlap
     ethr =  4.81E-11,  avg # of iterations =  2.0

     total cpu time spent up to now is        3.4 secs

     total energy              =     -45.57579882 Ry
     Harris-Foulkes estimate   =     -45.57579881 Ry
     estimated scf accuracy    <          4.5E-10 Ry

     iteration # 10     ecut=    30.00 Ry     beta= 0.30
     Davidson diagonalization with overlap
     ethr =  2.81E-12,  avg # of iterations =  2.0

     total cpu time spent up to now is        3.4 secs

     total energy              =     -45.57579882 Ry
     Harris-Foulkes estimate   =     -45.57579882 Ry
     estimated scf accuracy    <          5.4E-11 Ry

     iteration # 11     ecut=    30.00 Ry     beta= 0.30
     Davidson diagonalization with overlap
     ethr =  3.36E-13,  avg # of iterations =  2.0

     total cpu time spent up to now is        3.5 secs

     End of self-consistent calculation

          k = 0.1253 0.2171 0.0895 (   626 PWs)   bands (ev):

   -11.7570 -11.5973  -0.1361   0.5174   0.5411   1.0018   1.5827   1.5995
    12.8300  14.8856  15.1187  15.9025

     occupation numbers 
     1.0000   1.0000   1.0000   1.0000   1.0000   1.0000   1.0000   1.0000
     0.0000   0.0000   0.0000   0.0000

          k = 0.1253 0.5065 0.0895 (   635 PWs)   bands (ev):

    -8.2154  -8.0962  -5.3099  -5.2206  -0.7185  -0.6745   3.8102   4.5437
     8.7680   9.2655  15.6687  15.9245

     occupation numbers 
     1.0000   1.0000   1.0000   1.0000   1.0000   1.0000   1.0000   1.0000
     0.0000   0.0000   0.0000   0.0000

          k = 0.1253-0.3618 0.0895 (   638 PWs)   bands (ev):

   -10.3027 -10.1583  -2.2899  -2.2289   0.0529   0.0897   1.5766   2.6140
    11.7776  12.1826  14.5855  16.0141

     occupation numbers 
     1.0000   1.0000   1.0000   1.0000   1.0000   1.0000   1.0000   1.0000
     0.0000   0.0000   0.0000   0.0000

          k = 0.1253-0.0724 0.0895 (   616 PWs)   bands (ev):

   -12.4956 -12.3279  -1.0233   0.1544   2.3142   2.3399   2.9893   3.0078
    11.9364  15.1189  15.2284  15.8438

     occupation numbers 
     1.0000   1.0000   1.0000   1.0000   1.0000   1.0000   1.0000   1.0000
     0.0000   0.0000   0.0000   0.0000

          k = 0.3760 0.6512 0.0895 (   638 PWs)   bands (ev):

    -6.5954  -6.5378  -5.7150  -5.6893  -3.0413  -2.9841   5.4904   5.8974
     7.7091   7.7832  17.5227  17.6102

     occupation numbers 
     1.0000   1.0000   1.0000   1.0000   1.0000   1.0000   1.0154   0.9846
     0.0000   0.0000   0.0000   0.0000

          k = 0.3760-0.2171 0.0895 (   632 PWs)   bands (ev):

    -9.5885  -9.4518  -3.9978  -3.9145   0.6619   0.6904   2.3611   3.3125
    10.2725  10.8744  14.3048  14.4917

     occupation numbers 
     1.0000   1.0000   1.0000   1.0000   1.0000   1.0000   1.0000   1.0000
     0.0000   0.0000   0.0000   0.0000

     the Fermi energy is     6.1374 ev

!    total energy              =     -45.57579882 Ry
     Harris-Foulkes estimate   =     -45.57579882 Ry
     estimated scf accuracy    <          9.9E-13 Ry

     The total energy is the sum of the following terms:

     one-electron contribution =     -13.30487035 Ry
     hartree contribution      =      14.39544654 Ry
     xc contribution           =     -14.06108683 Ry
     ewald contribution        =     -32.60583100 Ry
     smearing contrib. (-TS)   =       0.00054281 Ry

     convergence has been achieved in  11 iterations

     Forces acting on atoms (cartesian axes, Ry/au):

     atom    1 type  1   force =     0.00000000    0.00000000    0.00000000
     atom    2 type  1   force =    -0.00000000   -0.00000000    0.00000000
     atom    3 type  1   force =     0.00000000    0.00000000    0.00000000
     atom    4 type  1   force =     0.00000000    0.00000000   -0.00000000
     The non-local contrib.  to forces
     atom    1 type  1   force =     0.00000000    0.00000000   -0.00000000
     atom    2 type  1   force =    -0.00000000   -0.00000000    0.00000000
     atom    3 type  1   force =    -0.00000000   -0.00000000    0.00000000
     atom    4 type  1   force =    -0.00000000    0.00000000   -0.00000000
     The ionic contribution  to forces
     atom    1 type  1   force =     0.00000857   -0.00000495   -0.00000000
     atom    2 type  1   force =    -0.00000859    0.00000496   -0.00000000
     atom    3 type  1   force =    -0.00000857    0.00000495    0.00000000
     atom    4 type  1   force =     0.00000859   -0.00000496    0.00000000
     The local contribution  to forces
     atom    1 type  1   force =    -0.00000000    0.00000000   -0.00000000
     atom    2 type  1   force =    -0.00000799    0.00000461   -0.00000000
     atom    3 type  1   force =    -0.00000000   -0.00000000    0.00000000
     atom    4 type  1   force =     0.00000799   -0.00000461    0.00000000
     The core correction contribution to forces
     atom    1 type  1   force =     0.00000000    0.00000000    0.00000000
     atom    2 type  1   force =     0.00000000    0.00000000    0.00000000
     atom    3 type  1   force =     0.00000000    0.00000000    0.00000000
     atom    4 type  1   force =     0.00000000    0.00000000    0.00000000
     The Hubbard contrib.    to forces
     atom    1 type  1   force =     0.00000000    0.00000000    0.00000000
     atom    2 type  1   force =     0.00000000    0.00000000    0.00000000
     atom    3 type  1   force =     0.00000000    0.00000000    0.00000000
     atom    4 type  1   force =     0.00000000    0.00000000    0.00000000
     The SCF correction term to forces
     atom    1 type  1   force =    -0.00000000    0.00000000    0.00000000
     atom    2 type  1   force =     0.00000000   -0.00000000   -0.00000000
     atom    3 type  1   force =     0.00000000   -0.00000000    0.00000000
     atom    4 type  1   force =    -0.00000000    0.00000000    0.00000000

     Total force =     0.000000     Total SCF correction =     0.000000


     Computing stress (Cartesian axis) and pressure

          total   stress  (Ry/bohr**3)                   (kbar)     P=   13.39
   0.00009044   0.00000000  -0.00000000         13.30      0.00     -0.00
   0.00000000   0.00009044  -0.00000000          0.00     13.30     -0.00
  -0.00000000  -0.00000000   0.00009211         -0.00     -0.00     13.55

     kinetic stress (kbar)  10332.52      0.00     -0.00
                                0.00  10332.52      0.00
                               -0.00      0.00  11964.81

     local   stress (kbar) -19208.04      0.01      0.00
                                0.01 -19208.02      0.00
                                0.00      0.00  26080.00

     nonloc. stress (kbar)   -444.76     -0.00     -0.00
                               -0.00   -444.76     -0.00
                               -0.00     -0.00   -446.35

     hartree stress (kbar)   7698.84      0.00      0.00
                                0.00   7698.84      0.00
                                0.00      0.00  -6705.68

     exc-cor stress (kbar)  -2609.51     -0.00     -0.00
                               -0.00  -2609.51     -0.00
                               -0.00     -0.00  -2703.26

     corecor stress (kbar)      0.00      0.00      0.00
                                0.00      0.00      0.00
                                0.00      0.00      0.00

     ewald   stress (kbar)   4244.26     -0.02     -0.00
                               -0.02   4244.23      0.00
                               -0.00      0.00 -28175.97

     hubbard stress (kbar)      0.00      0.00      0.00
                                0.00      0.00      0.00
                                0.00      0.00      0.00

     london  stress (kbar)      0.00      0.00      0.00
                                0.00      0.00      0.00
                                0.00      0.00      0.00

     DFT-D3  stress (kbar)      0.00      0.00      0.00
                                0.00      0.00      0.00
                                0.00      0.00      0.00

     XDM     stress (kbar)      0.00      0.00      0.00
                                0.00      0.00      0.00
                                0.00      0.00      0.00

     dft-nl  stress (kbar)      0.00      0.00      0.00
                                0.00      0.00      0.00
                                0.00      0.00      0.00

     TS-vdW  stress (kbar)      0.00      0.00      0.00
                                0.00      0.00      0.00
                                0.00      0.00      0.00



     number of scf cycles    =   4
     number of bfgs steps    =   3

     enthalpy old            =     -45.5743165342 Ry
     enthalpy new            =     -45.5757988225 Ry

     CASE: enthalpy_new < enthalpy_old

     new trust radius        =       0.0843391308 bohr
     new conv_thr            =            1.0E-11 Ry

     new unit-cell volume =    250.76413 a.u.^3 (    37.15941 Ang^3 )
     density =      2.14694 g/cm^3

CELL_PARAMETERS (alat=  4.66006464)
   0.998497650  -0.000000000  -0.000000000
  -0.499248825   0.864724331  -0.000000000
  -0.000000000  -0.000000000   2.869887391

ATOMIC_POSITIONS (crystal)
C       -0.000000000   1.000000000   0.750000000
C        0.666667000   0.333333000   0.750000000
C       -0.000000000   1.000000000   0.250000000
C        0.333333000   0.666667000   0.250000000



     Writing output data file graphite.save/
     NEW-OLD atomic charge density approx. for the potential
     extrapolated charge   16.45511, renormalised to   16.00000

     total cpu time spent up to now is        3.7 secs

     Self-consistent Calculation

     iteration #  1     ecut=    30.00 Ry     beta= 0.30
     Davidson diagonalization with overlap
     ethr =  1.00E-06,  avg # of iterations =  7.5

     total cpu time spent up to now is        3.8 secs

     total energy              =     -45.56729235 Ry
     Harris-Foulkes estimate   =     -45.22474527 Ry
     estimated scf accuracy    <       0.00401820 Ry

     iteration #  2     ecut=    30.00 Ry     beta= 0.30
     Davidson diagonalization with overlap
     ethr =  2.51E-05,  avg # of iterations =  4.3

     total cpu time spent up to now is        3.9 secs

     total energy              =     -45.57652837 Ry
     Harris-Foulkes estimate   =     -45.57691476 Ry
     estimated scf accuracy    <       0.00170562 Ry

     iteration #  3     ecut=    30.00 Ry     beta= 0.30
     Davidson diagonalization with overlap
     ethr =  1.07E-05,  avg # of iterations =  1.0

     total cpu time spent up to now is        4.0 secs

     total energy              =     -45.57594985 Ry
     Harris-Foulkes estimate   =     -45.57655303 Ry
     estimated scf accuracy    <       0.00091326 Ry

     iteration #  4     ecut=    30.00 Ry     beta= 0.30
     Davidson diagonalization with overlap
     ethr =  5.71E-06,  avg # of iterations =  2.7

     total cpu time spent up to now is        4.1 secs

     total energy              =     -45.57614891 Ry
     Harris-Foulkes estimate   =     -45.57617345 Ry
     estimated scf accuracy    <       0.00006667 Ry

     iteration #  5     ecut=    30.00 Ry     beta= 0.30
     Davidson diagonalization with overlap
     ethr =  4.17E-07,  avg # of iterations =  1.0

     total cpu time spent up to now is        4.1 secs

     total energy              =     -45.57614137 Ry
     Harris-Foulkes estimate   =     -45.57615160 Ry
     estimated scf accuracy    <       0.00001808 Ry

     iteration #  6     ecut=    30.00 Ry     beta= 0.30
     Davidson diagonalization with overlap
     ethr =  1.13E-07,  avg # of iterations =  2.0

     total cpu time spent up to now is        4.2 secs

     total energy              =     -45.57614381 Ry
     Harris-Foulkes estimate   =     -45.57614371 Ry
     estimated scf accuracy    <       0.00000016 Ry

     iteration #  7     ecut=    30.00 Ry     beta= 0.30
     Davidson diagonalization with overlap
     ethr =  9.73E-10,  avg # of iterations =  2.2

     total cpu time spent up to now is        4.3 secs

     total energy              =     -45.57614367 Ry
     Harris-Foulkes estimate   =     -45.57614383 Ry
     estimated scf accuracy    <       0.00000029 Ry

     iteration #  8     ecut=    30.00 Ry     beta= 0.30
     Davidson diagonalization with overlap
     ethr =  9.73E-10,  avg # of iterations =  2.0

     total cpu time spent up to now is        4.3 secs

     total energy              =     -45.57614372 Ry
     Harris-Foulkes estimate   =     -45.57614372 Ry
     estimated scf accuracy    <          4.8E-10 Ry

     iteration #  9     ecut=    30.00 Ry     beta= 0.30
     Davidson diagonalization with overlap
     ethr =  3.00E-12,  avg # of iterations =  2.3

     total cpu time spent up to now is        4.4 secs

     total energy              =     -45.57614373 Ry
     Harris-Foulkes estimate   =     -45.57614372 Ry
     estimated scf accuracy    <          1.5E-10 Ry

     iteration # 10     ecut=    30.00 Ry     beta= 0.30
     Davidson diagonalization with overlap
     ethr =  9.53E-13,  avg # of iterations =  2.0

     total cpu time spent up to now is        4.5 secs

     End of self-consistent calculation

          k = 0.1252 0.2168 0.0871 (   626 PWs)   bands (ev):

   -12.0302 -11.9015  -0.3575   0.2084   0.2268   0.6305   1.2758   1.2889
    12.3053  14.5739  14.7676  15.4909

     occupation numbers 
     1.0000   1.0000   1.0000   1.0000   1.0000   1.0000   1.0000   1.0000
     0.0000   0.0000   0.0000   0.0000

          k = 0.1252 0.5059 0.0871 (   635 PWs)   bands (ev):

    -8.5006  -8.4052  -5.5998  -5.5289  -1.0170  -0.9828   3.5606   4.1926
     8.4838   8.9143  15.3442  15.5565

     occupation numbers 
     1.0000   1.0000   1.0000   1.0000   1.0000   1.0000   1.0000   1.0000
     0.0000   0.0000   0.0000   0.0000

          k = 0.1252-0.3614 0.0871 (   638 PWs)   bands (ev):

   -10.5803 -10.4643  -2.5897  -2.5418  -0.2480  -0.2194   1.3466   2.2451
    11.4857  11.8289  14.0850  15.6821

     occupation numbers 
     1.0000   1.0000   1.0000   1.0000   1.0000   1.0000   1.0000   1.0000
     0.0000   0.0000   0.0000   0.0000

          k = 0.1252-0.0723 0.0871 (   616 PWs)   bands (ev):

   -12.7665 -12.6312  -1.2405  -0.2172   2.0034   2.0231   2.6781   2.6923
    11.4017  14.7418  14.8827  15.0939

     occupation numbers 
     1.0000   1.0000   1.0000   1.0000   1.0000   1.0000   1.0000   1.0000
     0.0000   0.0000   0.0000   0.0000

          k = 0.3756 0.6505 0.0871 (   638 PWs)   bands (ev):

    -6.8919  -6.8462  -6.0117  -5.9912  -3.3314  -3.2864   5.2238   5.5719
     7.3983   7.4534  17.2133  17.2686

     occupation numbers 
     1.0000   1.0000   1.0000   1.0000   1.0000   1.0000   1.0310   0.9690
     0.0000   0.0000   0.0000   0.0000

          k = 0.3756-0.2168 0.0871 (   632 PWs)   bands (ev):

    -9.8685  -9.7587  -4.2912  -4.2252   0.3591   0.3808   2.1254   2.9479
     9.9957  10.5113  13.9780  14.1261

     occupation numbers 
     1.0000   1.0000   1.0000   1.0000   1.0000   1.0000   1.0000   1.0000
     0.0000   0.0000   0.0000   0.0000

     the Fermi energy is     5.8020 ev

!    total energy              =     -45.57614373 Ry
     Harris-Foulkes estimate   =     -45.57614373 Ry
     estimated scf accuracy    <          7.8E-12 Ry

     The total energy is the sum of the following terms:

     one-electron contribution =     -15.44486967 Ry
     hartree contribution      =      15.28049694 Ry
     xc contribution           =     -14.04909392 Ry
     ewald contribution        =     -31.36332713 Ry
     smearing contrib. (-TS)   =       0.00065004 Ry

     convergence has been achieved in  10 iterations

     Forces acting on atoms (cartesian axes, Ry/au):

     atom    1 type  1   force =    -0.00000000   -0.00000000   -0.00000000
     atom    2 type  1   force =     0.00000000    0.00000000    0.00000000
     atom    3 type  1   force =    -0.00000000   -0.00000000   -0.00000000
     atom    4 type  1   force =    -0.00000000   -0.00000000   -0.00000000
     The non-local contrib.  to forces
     atom    1 type  1   force =    -0.00000000   -0.00000000   -0.00000000
     atom    2 type  1   force =     0.00000000    0.00000000    0.00000000
     atom    3 type  1   force =    -0.00000000   -0.00000000   -0.00000000
     atom    4 type  1   force =     0.00000000   -0.00000000    0.00000000
     The ionic contribution  to forces
     atom    1 type  1   force =     0.00000855   -0.00000494   -0.00000000
     atom    2 type  1   force =    -0.00000856    0.00000494   -0.00000000
     atom    3 type  1   force =    -0.00000855    0.00000494    0.00000000
     atom    4 type  1   force =     0.00000856   -0.00000494    0.00000000
     The local contribution  to forces
     atom    1 type  1   force =     0.00000000    0.00000000   -0.00000000
     atom    2 type  1   force =    -0.00000801    0.00000462   -0.00000000
     atom    3 type  1   force =    -0.00000000   -0.00000000    0.00000000
     atom    4 type  1   force =     0.00000801   -0.00000462    0.00000000
     The core correction contribution to forces
     atom    1 type  1   force =     0.00000000    0.00000000    0.00000000
     atom    2 type  1   force =     0.00000000    0.00000000    0.00000000
     atom    3 type  1   force =     0.00000000    0.00000000    0.00000000
     atom    4 type  1   force =     0.00000000    0.00000000    0.00000000
     The Hubbard contrib.    to forces
     atom    1 type  1   force =     0.00000000    0.00000000    0.00000000
     atom    2 type  1   force =     0.00000000    0.00000000    0.00000000
     atom    3 type  1   force =     0.00000000    0.00000000    0.00000000
     atom    4 type  1   force =     0.00000000    0.00000000    0.00000000
     The SCF correction term to forces
     atom    1 type  1   force =    -0.00000000    0.00000000    0.00000000
     atom    2 type  1   force =     0.00000000   -0.00000000    0.00000000
     atom    3 type  1   force =     0.00000000   -0.00000000    0.00000000
     atom    4 type  1   force =    -0.00000000    0.00000000    0.00000000

     Total force =     0.000000     Total SCF correction =     0.000000


     Computing stress (Cartesian axis) and pressure

          total   stress  (Ry/bohr**3)                   (kbar)     P=    0.13
  -0.00000140  -0.00000000   0.00000000         -0.21     -0.00      0.00
  -0.00000000  -0.00000140  -0.00000000         -0.00     -0.21     -0.00
   0.00000000   0.00000000   0.00000543          0.00      0.00      0.80

     kinetic stress (kbar)  10026.22      0.00      0.00
                                0.00  10026.22      0.00
                               -0.00     -0.00  11613.42

     local   stress (kbar) -19885.11      0.01      0.00
                                0.01 -19885.10      0.00
                                0.00      0.00  26527.15

     nonloc. stress (kbar)   -430.82     -0.00     -0.00
                               -0.00   -430.82     -0.00
                               -0.00     -0.00   -435.32

     hartree stress (kbar)   7996.50      0.00      0.00
                                0.00   7996.50      0.00
                                0.00      0.00  -7029.05

     exc-cor stress (kbar)  -2532.76     -0.00     -0.00
                               -0.00  -2532.76     -0.00
                               -0.00     -0.00  -2625.31

     corecor stress (kbar)      0.00      0.00      0.00
                                0.00      0.00      0.00
                                0.00      0.00      0.00

     ewald   stress (kbar)   4825.77     -0.02     -0.00
                               -0.02   4825.74     -0.00
                               -0.00     -0.00 -28050.09

     hubbard stress (kbar)      0.00      0.00      0.00
                                0.00      0.00      0.00
                                0.00      0.00      0.00

     london  stress (kbar)      0.00      0.00      0.00
                                0.00      0.00      0.00
                                0.00      0.00      0.00

     DFT-D3  stress (kbar)      0.00      0.00      0.00
                                0.00      0.00      0.00
                                0.00      0.00      0.00

     XDM     stress (kbar)      0.00      0.00      0.00
                                0.00      0.00      0.00
                                0.00      0.00      0.00

     dft-nl  stress (kbar)      0.00      0.00      0.00
                                0.00      0.00      0.00
                                0.00      0.00      0.00

     TS-vdW  stress (kbar)      0.00      0.00      0.00
                                0.00      0.00      0.00
                                0.00      0.00      0.00



     number of scf cycles    =   5
     number of bfgs steps    =   4

     enthalpy old            =     -45.5757988225 Ry
     enthalpy new            =     -45.5761437313 Ry

     CASE: enthalpy_new < enthalpy_old

     new trust radius        =       0.0051603329 bohr
[...]
A_1g   1.00  1.00  1.00  1.00  1.00  1.00  1.00  1.00  1.00  1.00  1.00  1.00
A_2g   1.00  1.00  1.00  1.00 -1.00 -1.00  1.00  1.00  1.00  1.00 -1.00 -1.00
B_1g   1.00 -1.00  1.00 -1.00  1.00 -1.00  1.00 -1.00  1.00 -1.00  1.00 -1.00
B_2g   1.00 -1.00  1.00 -1.00 -1.00  1.00  1.00 -1.00  1.00 -1.00 -1.00  1.00
E_1g   2.00  1.00 -1.00 -2.00  0.00  0.00  2.00  1.00 -1.00 -2.00  0.00  0.00
E_2g   2.00 -1.00 -1.00  2.00  0.00  0.00  2.00 -1.00 -1.00  2.00  0.00  0.00
A_1u   1.00  1.00  1.00  1.00  1.00  1.00 -1.00 -1.00 -1.00 -1.00 -1.00 -1.00
A_2u   1.00  1.00  1.00  1.00 -1.00 -1.00 -1.00 -1.00 -1.00 -1.00  1.00  1.00
B_1u   1.00 -1.00  1.00 -1.00  1.00 -1.00 -1.00  1.00 -1.00  1.00 -1.00  1.00
B_2u   1.00 -1.00  1.00 -1.00 -1.00  1.00 -1.00  1.00 -1.00  1.00  1.00 -1.00
E_1u   2.00  1.00 -1.00 -2.00  0.00  0.00 -2.00 -1.00  1.00  2.00  0.00  0.00
E_2u   2.00 -1.00 -1.00  2.00  0.00  0.00 -2.00  1.00  1.00 -2.00  0.00  0.00

     the symmetry operations in each class and the name of the first element:

     E        1
          identity                                               
     2C6      5    6
           60 deg rotation - cryst. axis [0,0,1]                 
     2C3      7    8
          120 deg rotation - cryst. axis [0,0,1]                 
     C2       2
          180 deg rotation - cart. axis [0,0,1]                  
     3C2'     4   12   11
          180 deg rotation - cart. axis [1,0,0]                  
     3C2''    3    9   10
          180 deg rotation - cart. axis [0,1,0]                  
     i       13
          inversion                                              
     2S3     17   18
          inv.  60 deg rotation - cryst. axis [0,0,1]            
     2S6     19   20
          inv. 120 deg rotation - cryst. axis [0,0,1]            
     s_h     14
          inv. 180 deg rotation - cart. axis [0,0,1]             
     3s_d    16   24   23
          inv. 180 deg rotation - cart. axis [1,0,0]             
     3s_v    15   21   22
          inv. 180 deg rotation - cart. axis [0,1,0]             

   Cartesian axes

     site n.     atom                  positions (alat units)
         1           C   tau(   1) = (  -0.4992455   0.8647186   2.1559226  )
         2           C   tau(   2) = (   0.4992460   0.2882392   2.1559226  )
         3           C   tau(   3) = (  -0.4992455   0.8647186   0.7186409  )
         4           C   tau(   4) = (  -0.0000005   0.5764794   0.7186409  )

   Crystallographic axes

     site n.     atom                  positions (cryst. coord.)
         1           C   tau(   1) = ( -0.0000000  1.0000000  0.7500000  )
         2           C   tau(   2) = (  0.6666670  0.3333330  0.7500000  )
         3           C   tau(   3) = ( -0.0000000  1.0000000  0.2500000  )
         4           C   tau(   4) = (  0.3333330  0.6666670  0.2500000  )

     number of k points=     6  Marzari-Vanderbilt smearing, width (Ry)=  0.0200
                       cart. coord. in units 2pi/alat
        k(    1) = (   0.1251889   0.2168335   0.0869697), wk =   0.2500000
        k(    2) = (   0.1251889   0.5059449   0.0869697), wk =   0.5000000
        k(    3) = (   0.1251889  -0.3613892   0.0869697), wk =   0.5000000
        k(    4) = (   0.1251889  -0.0722778   0.0869697), wk =   0.2500000
        k(    5) = (   0.3755667   0.6505006   0.0869697), wk =   0.2500000
        k(    6) = (   0.3755667  -0.2168335   0.0869697), wk =   0.2500000

                       cryst. coord.
        k(    1) = (   0.1250000   0.1250000   0.2500000), wk =   0.2500000
        k(    2) = (   0.1250000   0.3750000   0.2500000), wk =   0.5000000
        k(    3) = (   0.1250000  -0.3750000   0.2500000), wk =   0.5000000
        k(    4) = (   0.1250000  -0.1250000   0.2500000), wk =   0.2500000
        k(    5) = (   0.3750000   0.3750000   0.2500000), wk =   0.2500000
        k(    6) = (   0.3750000  -0.3750000   0.2500000), wk =   0.2500000

     Dense  grid:    15751 G-vectors     FFT dimensions: (  24,  24,  72)

     Smooth grid:     5561 G-vectors     FFT dimensions: (  18,  18,  48)

     Dynamical RAM for                 wfc:       0.06 MB

     Dynamical RAM for     wfc (w. buffer):       0.45 MB

     Dynamical RAM for           str. fact:       0.12 MB

     Dynamical RAM for           local pot:       0.05 MB

     Dynamical RAM for          nlocal pot:       0.17 MB

     Dynamical RAM for                qrad:       0.53 MB

     Dynamical RAM for          rho,v,vnew:       0.84 MB

     Dynamical RAM for               rhoin:       0.28 MB

     Dynamical RAM for            rho*nmix:       1.92 MB

     Dynamical RAM for           G-vectors:       0.47 MB

     Dynamical RAM for          h,s,v(r/c):       0.11 MB

     Dynamical RAM for          <psi|beta>:       0.01 MB

     Dynamical RAM for                 psi:       0.25 MB

     Dynamical RAM for                hpsi:       0.25 MB

     Dynamical RAM for                spsi:       0.25 MB

     Dynamical RAM for      wfcinit/wfcrot:       0.18 MB

     Dynamical RAM for           addusdens:       5.65 MB

     Dynamical RAM for          addusforce:       6.43 MB

     Dynamical RAM for         addusstress:       6.01 MB

     Estimated static dynamical RAM per process >       5.86 MB

     Estimated max dynamical RAM per process >      12.29 MB

     Estimated total dynamical RAM >      24.58 MB

     Initial potential from superposition of free atoms

     starting charge   15.99979, renormalised to   16.00000
     Starting wfcs are   16 randomized atomic wfcs

     total cpu time spent up to now is        5.5 secs

     Self-consistent Calculation

     iteration #  1     ecut=    30.00 Ry     beta= 0.30
     Davidson diagonalization with overlap
     ethr =  1.00E-06,  avg # of iterations = 11.2

     total cpu time spent up to now is        5.6 secs

     total energy              =     -45.61990901 Ry
     Harris-Foulkes estimate   =     -45.75075223 Ry
     estimated scf accuracy    <       0.39726356 Ry

     iteration #  2     ecut=    30.00 Ry     beta= 0.30
     Davidson diagonalization with overlap
     ethr =  2.48E-03,  avg # of iterations =  1.0

     total cpu time spent up to now is        5.7 secs

     total energy              =     -45.55694235 Ry
     Harris-Foulkes estimate   =     -45.63026384 Ry
     estimated scf accuracy    <       0.13338326 Ry

     iteration #  3     ecut=    30.00 Ry     beta= 0.30
     Davidson diagonalization with overlap
     ethr =  8.34E-04,  avg # of iterations =  2.5

     total cpu time spent up to now is        5.7 secs

     total energy              =     -45.57683801 Ry
     Harris-Foulkes estimate   =     -45.57690919 Ry
     estimated scf accuracy    <       0.00206283 Ry

     iteration #  4     ecut=    30.00 Ry     beta= 0.30
     Davidson diagonalization with overlap
     ethr =  1.29E-05,  avg # of iterations =  3.8

     total cpu time spent up to now is        5.8 secs

     total energy              =     -45.57703214 Ry
     Harris-Foulkes estimate   =     -45.57718585 Ry
     estimated scf accuracy    <       0.00038351 Ry

     iteration #  5     ecut=    30.00 Ry     beta= 0.30
     Davidson diagonalization with overlap
     ethr =  2.40E-06,  avg # of iterations =  2.8

     total cpu time spent up to now is        5.9 secs

     total energy              =     -45.57708434 Ry
     Harris-Foulkes estimate   =     -45.57708010 Ry
     estimated scf accuracy    <       0.00000214 Ry

     iteration #  6     ecut=    30.00 Ry     beta= 0.30
     Davidson diagonalization with overlap
     ethr =  1.34E-08,  avg # of iterations =  2.7

     total cpu time spent up to now is        5.9 secs

     total energy              =     -45.57708570 Ry
     Harris-Foulkes estimate   =     -45.57708521 Ry
     estimated scf accuracy    <       0.00000100 Ry

     iteration #  7     ecut=    30.00 Ry     beta= 0.30
     Davidson diagonalization with overlap
     ethr =  6.25E-09,  avg # of iterations =  1.8

     total cpu time spent up to now is        6.0 secs

     total energy              =     -45.57708594 Ry
     Harris-Foulkes estimate   =     -45.57708581 Ry
     estimated scf accuracy    <       0.00000023 Ry

     iteration #  8     ecut=    30.00 Ry     beta= 0.30
     Davidson diagonalization with overlap
     ethr =  1.44E-09,  avg # of iterations =  1.7

     total cpu time spent up to now is        6.1 secs

     total energy              =     -45.57708608 Ry
     Harris-Foulkes estimate   =     -45.57708596 Ry
     estimated scf accuracy    <          7.9E-10 Ry

     iteration #  9     ecut=    30.00 Ry     beta= 0.30
     Davidson diagonalization with overlap
     ethr =  4.93E-12,  avg # of iterations =  2.5

     total cpu time spent up to now is        6.1 secs

     total energy              =     -45.57708613 Ry
     Harris-Foulkes estimate   =     -45.57708608 Ry
     estimated scf accuracy    <          1.1E-09 Ry

     iteration # 10     ecut=    30.00 Ry     beta= 0.30
     Davidson diagonalization with overlap
     ethr =  4.93E-12,  avg # of iterations =  1.0

     total cpu time spent up to now is        6.2 secs

     End of self-consistent calculation

          k = 0.1252 0.2168 0.0870 (   692 PWs)   bands (ev):

   -12.0452 -11.9184  -0.3714   0.1927   0.2109   0.6082   1.2600   1.2726
    12.2797  14.5568  14.7483  15.4662

     occupation numbers 
     1.0000   1.0000   1.0000   1.0000   1.0000   1.0000   1.0000   1.0000
     0.0000   0.0000   0.0000   0.0000

          k = 0.1252 0.5059 0.0870 (   703 PWs)   bands (ev):

    -8.5156  -8.4219  -5.6153  -5.5454  -1.0327  -0.9990   3.5453   4.1720
     8.4673   8.8942  15.3296  15.5392

     occupation numbers 
     1.0000   1.0000   1.0000   1.0000   1.0000   1.0000   1.0000   1.0000
     0.0000   0.0000   0.0000   0.0000

          k = 0.1252-0.3614 0.0870 (   700 PWs)   bands (ev):

   -10.5953 -10.4811  -2.6053  -2.5579  -0.2637  -0.2355   1.3324   2.2231
    11.4697  11.8093  14.0608  15.6669

     occupation numbers 
     1.0000   1.0000   1.0000   1.0000   1.0000   1.0000   1.0000   1.0000
     0.0000   0.0000   0.0000   0.0000

          k = 0.1252-0.0723 0.0870 (   677 PWs)   bands (ev):

   -12.7815 -12.6482  -1.2551  -0.2397   1.9877   2.0072   2.6624   2.6763
    11.3754  14.7197  14.8662  15.0573

     occupation numbers 
     1.0000   1.0000   1.0000   1.0000   1.0000   1.0000   1.0000   1.0000
     0.0000   0.0000   0.0000   0.0000

          k = 0.3756 0.6505 0.0870 (   700 PWs)   bands (ev):

    -6.9073  -6.8623  -6.0275  -6.0073  -3.3470  -3.3027   5.2079   5.5527
     7.3806   7.4344  17.1990  17.2524

     occupation numbers 
     1.0000   1.0000   1.0000   1.0000   1.0000   1.0000   1.0321   0.9679
     0.0000   0.0000   0.0000   0.0000

          k = 0.3756-0.2168 0.0870 (   701 PWs)   bands (ev):

    -9.8835  -9.7756  -4.3066  -4.2416   0.3430   0.3646   2.1103   2.9262
     9.9792  10.4910  13.9630  14.1090

     occupation numbers 
     1.0000   1.0000   1.0000   1.0000   1.0000   1.0000   1.0000   1.0000
     0.0000   0.0000   0.0000   0.0000

     the Fermi energy is     5.7821 ev

!    total energy              =     -45.57708618 Ry
     Harris-Foulkes estimate   =     -45.57708613 Ry
     estimated scf accuracy    <          7.0E-12 Ry

     The total energy is the sum of the following terms:

     one-electron contribution =     -15.58368496 Ry
     hartree contribution      =      15.34015448 Ry
     xc contribution           =     -14.04890475 Ry
     ewald contribution        =     -31.28530820 Ry
     smearing contrib. (-TS)   =       0.00065724 Ry

     convergence has been achieved in  10 iterations

     Forces acting on atoms (cartesian axes, Ry/au):

     atom    1 type  1   force =     0.00000000    0.00000000    0.00000000
     atom    2 type  1   force =     0.00000000    0.00000000    0.00000000
     atom    3 type  1   force =    -0.00000000    0.00000000    0.00000000
     atom    4 type  1   force =     0.00000000    0.00000000    0.00000000
     The non-local contrib.  to forces
     atom    1 type  1   force =    -0.00000000   -0.00000000   -0.00000000
     atom    2 type  1   force =    -0.00000000   -0.00000000   -0.00000000
     atom    3 type  1   force =     0.00000000    0.00000000    0.00000000
     atom    4 type  1   force =    -0.00000000    0.00000000    0.00000000
     The ionic contribution  to forces
     atom    1 type  1   force =     0.00000855   -0.00000494   -0.00000000
     atom    2 type  1   force =    -0.00000856    0.00000494   -0.00000000
     atom    3 type  1   force =    -0.00000855    0.00000494    0.00000000
     atom    4 type  1   force =     0.00000856   -0.00000494    0.00000000
     The local contribution  to forces
     atom    1 type  1   force =    -0.00000000    0.00000000   -0.00000000
     atom    2 type  1   force =    -0.00000800    0.00000462   -0.00000000
     atom    3 type  1   force =     0.00000000   -0.00000000    0.00000000
     atom    4 type  1   force =     0.00000800   -0.00000462    0.00000000
     The core correction contribution to forces
     atom    1 type  1   force =     0.00000000    0.00000000    0.00000000
     atom    2 type  1   force =     0.00000000    0.00000000    0.00000000
     atom    3 type  1   force =     0.00000000    0.00000000    0.00000000
     atom    4 type  1   force =     0.00000000    0.00000000    0.00000000
     The Hubbard contrib.    to forces
     atom    1 type  1   force =     0.00000000    0.00000000    0.00000000
     atom    2 type  1   force =     0.00000000    0.00000000    0.00000000
     atom    3 type  1   force =     0.00000000    0.00000000    0.00000000
     atom    4 type  1   force =     0.00000000    0.00000000    0.00000000
     The SCF correction term to forces
     atom    1 type  1   force =    -0.00000000    0.00000000   -0.00000000
     atom    2 type  1   force =     0.00000000   -0.00000000   -0.00000000
     atom    3 type  1   force =     0.00000000   -0.00000000   -0.00000000
     atom    4 type  1   force =    -0.00000000    0.00000000   -0.00000000

     Total force =     0.000000     Total SCF correction =     0.000000


     Computing stress (Cartesian axis) and pressure

          total   stress  (Ry/bohr**3)                   (kbar)     P=    5.91
   0.00001412   0.00000000   0.00000000          2.08      0.00      0.00
   0.00000000   0.00001412   0.00000000          0.00      2.08      0.00
   0.00000000   0.00000000   0.00009237          0.00      0.00     13.59

     kinetic stress (kbar)  10007.29      0.00     -0.00
                                0.00  10007.29     -0.00
                                0.00      0.00  11591.27

     local   stress (kbar) -19930.92      0.01      0.00
                                0.01 -19930.91      0.00
                                0.00      0.00  26572.55

     nonloc. stress (kbar)   -427.85     -0.00     -0.00
                               -0.00   -427.85     -0.00
                               -0.00     -0.00   -426.03

     hartree stress (kbar)   8018.43     -0.00      0.00
                               -0.00   8018.43      0.00
                                0.00      0.00  -7052.43

     exc-cor stress (kbar)  -2528.64     -0.00     -0.00
                               -0.00  -2528.64     -0.00
                               -0.00     -0.00  -2621.06

     corecor stress (kbar)      0.00      0.00      0.00
                                0.00      0.00      0.00
                                0.00      0.00      0.00

     ewald   stress (kbar)   4863.77     -0.02     -0.00
                               -0.02   4863.74      0.00
                               -0.00      0.00 -28050.71

     hubbard stress (kbar)      0.00      0.00      0.00
                                0.00      0.00      0.00
                                0.00      0.00      0.00

     london  stress (kbar)      0.00      0.00      0.00
                                0.00      0.00      0.00
                                0.00      0.00      0.00

     DFT-D3  stress (kbar)      0.00      0.00      0.00
                                0.00      0.00      0.00
                                0.00      0.00      0.00

     XDM     stress (kbar)      0.00      0.00      0.00
                                0.00      0.00      0.00
                                0.00      0.00      0.00

     dft-nl  stress (kbar)      0.00      0.00      0.00
                                0.00      0.00      0.00
                                0.00      0.00      0.00

     TS-vdW  stress (kbar)      0.00      0.00      0.00
                                0.00      0.00      0.00
                                0.00      0.00      0.00



     Writing output data file graphite.save/
 
     init_run     :      0.31s CPU      0.32s WALL (       2 calls)
     electrons    :      4.60s CPU      4.71s WALL (       7 calls)
     update_pot   :      0.44s CPU      0.44s WALL (       5 calls)
     forces       :      0.24s CPU      0.24s WALL (       7 calls)
     stress       :      0.48s CPU      0.48s WALL (       7 calls)

     Called by init_run:
     wfcinit      :      0.04s CPU      0.04s WALL (       2 calls)
     wfcinit:atom :      0.00s CPU      0.00s WALL (      12 calls)
     wfcinit:wfcr :      0.03s CPU      0.04s WALL (      12 calls)
     potinit      :      0.06s CPU      0.06s WALL (       2 calls)
     hinit0       :      0.13s CPU      0.13s WALL (       2 calls)

     Called by electrons:
     c_bands      :      2.94s CPU      3.01s WALL (      67 calls)
     sum_band     :      0.80s CPU      0.83s WALL (      67 calls)
     v_of_rho     :      0.61s CPU      0.60s WALL (      73 calls)
     v_h          :      0.02s CPU      0.03s WALL (      73 calls)
     v_xc         :      0.58s CPU      0.57s WALL (      73 calls)
     newd         :      0.24s CPU      0.23s WALL (      73 calls)
     mix_rho      :      0.06s CPU      0.06s WALL (      67 calls)

     Called by c_bands:
     init_us_2    :      0.03s CPU      0.07s WALL (     900 calls)
     cegterg      :      2.76s CPU      2.84s WALL (     402 calls)

     Called by sum_band:
     sum_band:bec :      0.01s CPU      0.00s WALL (     402 calls)
     addusdens    :      0.22s CPU      0.24s WALL (      67 calls)

     Called by *egterg:
     h_psi        :      2.27s CPU      2.32s WALL (    1398 calls)
     s_psi        :      0.02s CPU      0.04s WALL (    1398 calls)
     g_psi        :      0.02s CPU      0.02s WALL (     984 calls)
     cdiaghg      :      0.29s CPU      0.31s WALL (    1350 calls)
     cegterg:over :      0.07s CPU      0.07s WALL (     984 calls)
     cegterg:upda :      0.04s CPU      0.04s WALL (     984 calls)
     cegterg:last :      0.02s CPU      0.02s WALL (     429 calls)

     Called by h_psi:
     h_psi:pot    :      2.26s CPU      2.31s WALL (    1398 calls)
     h_psi:calbec :      0.06s CPU      0.06s WALL (    1398 calls)
     vloc_psi     :      2.14s CPU      2.21s WALL (    1398 calls)
     add_vuspsi   :      0.06s CPU      0.04s WALL (    1398 calls)

     General routines
     calbec       :      0.08s CPU      0.09s WALL (    2010 calls)
     fft          :      0.33s CPU      0.32s WALL (     997 calls)
     ffts         :      0.02s CPU      0.02s WALL (     140 calls)
     fftw         :      2.35s CPU      2.39s WALL (   30384 calls)
     interpolate  :      0.02s CPU      0.04s WALL (      73 calls)
 
     Parallel routines
     fft_scatt_xy :      0.33s CPU      0.37s WALL (   31521 calls)
     fft_scatt_yz :      0.46s CPU      0.49s WALL (   31521 calls)
 
     PWSCF        :      6.12s CPU      6.26s WALL

 
   This run was terminated on:  18:44:43   3Sep2019            

=------------------------------------------------------------------------------=
   JOB DONE.
=------------------------------------------------------------------------------=
