
     Program PWSCF v.6.4.1 starts on  3Sep2019 at 18:38:24 

     This program is part of the open-source Quantum ESPRESSO suite
     for quantum simulation of materials; please cite
         "P. Giannozzi et al., J. Phys.:Condens. Matter 21 395502 (2009);
         "P. Giannozzi et al., J. Phys.:Condens. Matter 29 465901 (2017);
          URL http://www.quantum-espresso.org", 
     in publications or presentations arising from this work. More details at
     http://www.quantum-espresso.org/quote

     Parallel version (MPI), running on     2 processors

     MPI processes distributed on     1 nodes
     R & G space division:  proc/nbgrp/npool/nimage =       2
     Waiting for input...
     Reading input from standard input

     Current dimensions of program PWSCF are:
     Max number of different atomic species (ntypx) = 10
     Max number of k-points (npk) =  40000
     Max angular momentum in pseudopotentials (lmaxx) =  3

     IMPORTANT: XC functional enforced from input :
     Exchange-correlation      = VDW-DF2 ( 1  4 13  0 2 0)
     Any further DFT definition will be discarded
     Please, verify this is what you really want

               file C.pbe-rrkjus.UPF: wavefunction(s)  2S 2P renormalized

     Subspace diagonalization in iterative solution of the eigenvalue problem:
     a serial algorithm will be used

 
     Parallelization info
     --------------------
     sticks:   dense  smooth     PW     G-vecs:    dense   smooth      PW
     Min         180      93     30                 7166     2525     520
     Max         181      94     31                 7173     2528     525
     Sum         361     187     61                14339     5053    1045
 


     bravais-lattice index     =            4
     lattice parameter (alat)  =       4.6601  a.u.
     unit-cell volume          =     227.8448 (a.u.)^3
     number of atoms/cell      =            4
     number of atomic types    =            1
     number of electrons       =        16.00
     number of Kohn-Sham states=           12
     kinetic-energy cutoff     =      30.0000  Ry
     charge density cutoff     =     240.0000  Ry
     convergence threshold     =      1.0E-09
     mixing beta               =       0.3000
     number of iterations used =            8  plain     mixing
     Exchange-correlation      = VDW-DF2 ( 1  4 13  0 2 0)
     nstep                     =           50


     celldm(1)=   4.660065  celldm(2)=   0.000000  celldm(3)=   2.599757
     celldm(4)=   0.000000  celldm(5)=   0.000000  celldm(6)=   0.000000

     crystal axes: (cart. coord. in units of alat)
               a(1) = (   1.000000   0.000000   0.000000 )  
               a(2) = (  -0.500000   0.866025   0.000000 )  
               a(3) = (   0.000000   0.000000   2.599757 )  

     reciprocal axes: (cart. coord. in units 2 pi/alat)
               b(1) = (  1.000000  0.577350  0.000000 )  
               b(2) = (  0.000000  1.154701  0.000000 )  
               b(3) = (  0.000000  0.000000  0.384651 )  


     PseudoPot. # 1 for C  read from file:
     ../../../pseudo/C.pbe-rrkjus.UPF
     MD5 check sum: 00fb224312de0c5b6853bd333518df6f
     Pseudo is Ultrasoft, Zval =  4.0
     Generated by new atomic code, or converted to UPF format
     Using radial grid of  627 points,  4 beta functions with: 
                l(1) =   0
                l(2) =   0
                l(3) =   1
                l(4) =   1
     Q(r) pseudized with 0 coefficients 


     vdW kernel table read from file vdW_kernel_table
     MD5 check sum: 13d05b472ba19330c194d8f4c88b635e

     atomic species   valence    mass     pseudopotential
        C              4.00    12.01100     C ( 1.00)

     24 Sym. Ops., with inversion, found (12 have fractional translation)


                                    s                        frac. trans.

      isym =  1     identity                                     

 cryst.   s( 1) = (     1          0          0      )
                  (     0          1          0      )
                  (     0          0          1      )

 cart.    s( 1) = (  1.0000000  0.0000000  0.0000000 )
                  (  0.0000000  1.0000000  0.0000000 )
                  (  0.0000000  0.0000000  1.0000000 )


      isym =  2     180 deg rotation - cart. axis [0,0,1]        

 cryst.   s( 2) = (    -1          0          0      )    f =( -0.0000000 )
                  (     0         -1          0      )       ( -0.0000000 )
                  (     0          0          1      )       (  0.5000000 )

 cart.    s( 2) = ( -1.0000000  0.0000000  0.0000000 )    f =(  0.0000000 )
                  (  0.0000000 -1.0000000  0.0000000 )       ( -0.0000000 )
                  (  0.0000000  0.0000000  1.0000000 )       (  1.2998783 )


      isym =  3     180 deg rotation - cart. axis [0,1,0]        

 cryst.   s( 3) = (    -1          0          0      )    f =( -0.0000000 )
                  (     1          1          0      )       (  0.0000000 )
                  (     0          0         -1      )       (  0.5000000 )

 cart.    s( 3) = ( -1.0000000  0.0000000  0.0000000 )    f =( -0.0000000 )
                  (  0.0000000  1.0000000  0.0000000 )       (  0.0000000 )
                  (  0.0000000  0.0000000 -1.0000000 )       (  1.2998783 )


      isym =  4     180 deg rotation - cart. axis [1,0,0]        

 cryst.   s( 4) = (     1          0          0      )
                  (    -1         -1          0      )
                  (     0          0         -1      )

 cart.    s( 4) = (  1.0000000  0.0000000  0.0000000 )
                  (  0.0000000 -1.0000000  0.0000000 )
                  (  0.0000000  0.0000000 -1.0000000 )


      isym =  5      60 deg rotation - cryst. axis [0,0,1]       

 cryst.   s( 5) = (     1          1          0      )    f =(  0.0000000 )
                  (    -1          0          0      )       (  0.0000000 )
                  (     0          0          1      )       (  0.5000000 )

 cart.    s( 5) = (  0.5000000 -0.8660254  0.0000000 )    f =(  0.0000000 )
                  (  0.8660254  0.5000000  0.0000000 )       (  0.0000000 )
                  (  0.0000000  0.0000000  1.0000000 )       (  1.2998783 )


      isym =  6      60 deg rotation - cryst. axis [0,0,-1]      

 cryst.   s( 6) = (     0         -1          0      )    f =(  0.0000000 )
                  (     1          1          0      )       ( -0.0000000 )
                  (     0          0          1      )       (  0.5000000 )

 cart.    s( 6) = (  0.5000000  0.8660254  0.0000000 )    f =(  0.0000000 )
                  ( -0.8660254  0.5000000  0.0000000 )       ( -0.0000000 )
                  (  0.0000000  0.0000000  1.0000000 )       (  1.2998783 )


      isym =  7     120 deg rotation - cryst. axis [0,0,1]       

 cryst.   s( 7) = (     0          1          0      )
                  (    -1         -1          0      )
                  (     0          0          1      )

 cart.    s( 7) = ( -0.5000000 -0.8660254  0.0000000 )
                  (  0.8660254 -0.5000000  0.0000000 )
                  (  0.0000000  0.0000000  1.0000000 )


      isym =  8     120 deg rotation - cryst. axis [0,0,-1]      

 cryst.   s( 8) = (    -1         -1          0      )
                  (     1          0          0      )
                  (     0          0          1      )

 cart.    s( 8) = ( -0.5000000  0.8660254  0.0000000 )
                  ( -0.8660254 -0.5000000  0.0000000 )
                  (  0.0000000  0.0000000  1.0000000 )


      isym =  9     180 deg rotation - cryst. axis [1,-1,0]      

 cryst.   s( 9) = (     0         -1          0      )    f =( -0.0000000 )
                  (    -1          0          0      )       ( -0.0000000 )
                  (     0          0         -1      )       (  0.5000000 )

 cart.    s( 9) = (  0.5000000 -0.8660254  0.0000000 )    f =( -0.0000000 )
                  ( -0.8660254 -0.5000000  0.0000000 )       ( -0.0000000 )
                  (  0.0000000  0.0000000 -1.0000000 )       (  1.2998783 )


      isym = 10     180 deg rotation - cryst. axis [2,1,0]       

 cryst.   s(10) = (     1          1          0      )    f =(  0.0000000 )
                  (     0         -1          0      )       (  0.0000000 )
                  (     0          0         -1      )       (  0.5000000 )

 cart.    s(10) = (  0.5000000  0.8660254  0.0000000 )    f =(  0.0000000 )
                  (  0.8660254 -0.5000000  0.0000000 )       (  0.0000000 )
                  (  0.0000000  0.0000000 -1.0000000 )       (  1.2998783 )


      isym = 11     180 deg rotation - cryst. axis [0,1,0]       

 cryst.   s(11) = (    -1         -1          0      )
                  (     0          1          0      )
                  (     0          0         -1      )

 cart.    s(11) = ( -0.5000000 -0.8660254  0.0000000 )
                  ( -0.8660254  0.5000000  0.0000000 )
                  (  0.0000000  0.0000000 -1.0000000 )


      isym = 12     180 deg rotation - cryst. axis [1,1,0]       

 cryst.   s(12) = (     0          1          0      )
                  (     1          0          0      )
                  (     0          0         -1      )

 cart.    s(12) = ( -0.5000000  0.8660254  0.0000000 )
                  (  0.8660254  0.5000000  0.0000000 )
                  (  0.0000000  0.0000000 -1.0000000 )


      isym = 13     inversion                                    

 cryst.   s(13) = (    -1          0          0      )
                  (     0         -1          0      )
                  (     0          0         -1      )

 cart.    s(13) = ( -1.0000000  0.0000000  0.0000000 )
                  (  0.0000000 -1.0000000  0.0000000 )
                  (  0.0000000  0.0000000 -1.0000000 )


      isym = 14     inv. 180 deg rotation - cart. axis [0,0,1]   

 cryst.   s(14) = (     1          0          0      )    f =(  0.0000000 )
                  (     0          1          0      )       (  0.0000000 )
                  (     0          0         -1      )       (  0.5000000 )

 cart.    s(14) = (  1.0000000  0.0000000  0.0000000 )    f =(  0.0000000 )
                  (  0.0000000  1.0000000  0.0000000 )       (  0.0000000 )
                  (  0.0000000  0.0000000 -1.0000000 )       (  1.2998783 )


      isym = 15     inv. 180 deg rotation - cart. axis [0,1,0]   

 cryst.   s(15) = (     1          0          0      )    f =(  0.0000000 )
                  (    -1         -1          0      )       ( -0.0000000 )
                  (     0          0          1      )       (  0.5000000 )

 cart.    s(15) = (  1.0000000  0.0000000  0.0000000 )    f =(  0.0000000 )
                  (  0.0000000 -1.0000000  0.0000000 )       ( -0.0000000 )
                  (  0.0000000  0.0000000  1.0000000 )       (  1.2998783 )


      isym = 16     inv. 180 deg rotation - cart. axis [1,0,0]   

 cryst.   s(16) = (    -1          0          0      )
                  (     1          1          0      )
                  (     0          0          1      )

 cart.    s(16) = ( -1.0000000  0.0000000  0.0000000 )
                  (  0.0000000  1.0000000  0.0000000 )
                  (  0.0000000  0.0000000  1.0000000 )


      isym = 17     inv.  60 deg rotation - cryst. axis [0,0,1]  

 cryst.   s(17) = (    -1         -1          0      )    f =( -0.0000000 )
                  (     1          0          0      )       ( -0.0000000 )
                  (     0          0         -1      )       (  0.5000000 )

 cart.    s(17) = ( -0.5000000  0.8660254  0.0000000 )    f =(  0.0000000 )
                  ( -0.8660254 -0.5000000  0.0000000 )       ( -0.0000000 )
                  (  0.0000000  0.0000000 -1.0000000 )       (  1.2998783 )


      isym = 18     inv.  60 deg rotation - cryst. axis [0,0,-1] 

 cryst.   s(18) = (     0          1          0      )    f =( -0.0000000 )
                  (    -1         -1          0      )       (  0.0000000 )
                  (     0          0         -1      )       (  0.5000000 )

 cart.    s(18) = ( -0.5000000 -0.8660254  0.0000000 )    f =( -0.0000000 )
                  (  0.8660254 -0.5000000  0.0000000 )       (  0.0000000 )
                  (  0.0000000  0.0000000 -1.0000000 )       (  1.2998783 )


      isym = 19     inv. 120 deg rotation - cryst. axis [0,0,1]  

 cryst.   s(19) = (     0         -1          0      )
                  (     1          1          0      )
                  (     0          0         -1      )

 cart.    s(19) = (  0.5000000  0.8660254  0.0000000 )
                  ( -0.8660254  0.5000000  0.0000000 )
                  (  0.0000000  0.0000000 -1.0000000 )


      isym = 20     inv. 120 deg rotation - cryst. axis [0,0,-1] 

 cryst.   s(20) = (     1          1          0      )
                  (    -1          0          0      )
                  (     0          0         -1      )

 cart.    s(20) = (  0.5000000 -0.8660254  0.0000000 )
                  (  0.8660254  0.5000000  0.0000000 )
                  (  0.0000000  0.0000000 -1.0000000 )


      isym = 21     inv. 180 deg rotation - cryst. axis [1,-1,0] 

 cryst.   s(21) = (     0          1          0      )    f =(  0.0000000 )
                  (     1          0          0      )       (  0.0000000 )
                  (     0          0          1      )       (  0.5000000 )

 cart.    s(21) = ( -0.5000000  0.8660254  0.0000000 )    f =(  0.0000000 )
                  (  0.8660254  0.5000000  0.0000000 )       (  0.0000000 )
                  (  0.0000000  0.0000000  1.0000000 )       (  1.2998783 )


      isym = 22     inv. 180 deg rotation - cryst. axis [2,1,0]  

 cryst.   s(22) = (    -1         -1          0      )    f =( -0.0000000 )
                  (     0          1          0      )       ( -0.0000000 )
                  (     0          0          1      )       (  0.5000000 )

 cart.    s(22) = ( -0.5000000 -0.8660254  0.0000000 )    f =( -0.0000000 )
                  ( -0.8660254  0.5000000  0.0000000 )       ( -0.0000000 )
                  (  0.0000000  0.0000000  1.0000000 )       (  1.2998783 )


      isym = 23     inv. 180 deg rotation - cryst. axis [0,1,0]  

 cryst.   s(23) = (     1          1          0      )
                  (     0         -1          0      )
                  (     0          0          1      )

 cart.    s(23) = (  0.5000000  0.8660254  0.0000000 )
                  (  0.8660254 -0.5000000  0.0000000 )
                  (  0.0000000  0.0000000  1.0000000 )


      isym = 24     inv. 180 deg rotation - cryst. axis [1,1,0]  

 cryst.   s(24) = (     0         -1          0      )
                  (    -1          0          0      )
                  (     0          0          1      )

 cart.    s(24) = (  0.5000000 -0.8660254  0.0000000 )
                  ( -0.8660254 -0.5000000  0.0000000 )
                  (  0.0000000  0.0000000  1.0000000 )


     point group D_6h(6/mmm)
     there are 12 classes
     the character table:

       E     2C6   2C3   C2    3C2'  3C2'' i     2S3   2S6   s_h   3s_d  3s_v 
A_1g   1.00  1.00  1.00  1.00  1.00  1.00  1.00  1.00  1.00  1.00  1.00  1.00
A_2g   1.00  1.00  1.00  1.00 -1.00 -1.00  1.00  1.00  1.00  1.00 -1.00 -1.00
B_1g   1.00 -1.00  1.00 -1.00  1.00 -1.00  1.00 -1.00  1.00 -1.00  1.00 -1.00
B_2g   1.00 -1.00  1.00 -1.00 -1.00  1.00  1.00 -1.00  1.00 -1.00 -1.00  1.00
E_1g   2.00  1.00 -1.00 -2.00  0.00  0.00  2.00  1.00 -1.00 -2.00  0.00  0.00
E_2g   2.00 -1.00 -1.00  2.00  0.00  0.00  2.00 -1.00 -1.00  2.00  0.00  0.00
A_1u   1.00  1.00  1.00  1.00  1.00  1.00 -1.00 -1.00 -1.00 -1.00 -1.00 -1.00
A_2u   1.00  1.00  1.00  1.00 -1.00 -1.00 -1.00 -1.00 -1.00 -1.00  1.00  1.00
B_1u   1.00 -1.00  1.00 -1.00  1.00 -1.00 -1.00  1.00 -1.00  1.00 -1.00  1.00
B_2u   1.00 -1.00  1.00 -1.00 -1.00  1.00 -1.00  1.00 -1.00  1.00  1.00 -1.00
E_1u   2.00  1.00 -1.00 -2.00  0.00  0.00 -2.00 -1.00  1.00  2.00  0.00  0.00
E_2u   2.00 -1.00 -1.00  2.00  0.00  0.00 -2.00  1.00  1.00 -2.00  0.00  0.00

     the symmetry operations in each class and the name of the first element:

     E        1
          identity                                               
     2C6      5    6
           60 deg rotation - cryst. axis [0,0,1]                 
     2C3      7    8
          120 deg rotation - cryst. axis [0,0,1]                 
     C2       2
          180 deg rotation - cart. axis [0,0,1]                  
     3C2'     4   12   11
          180 deg rotation - cart. axis [1,0,0]                  
     3C2''    3    9   10
          180 deg rotation - cart. axis [0,1,0]                  
     i       13
          inversion                                              
     2S3     17   18
          inv.  60 deg rotation - cryst. axis [0,0,1]            
     2S6     19   20
          inv. 120 deg rotation - cryst. axis [0,0,1]            
     s_h     14
          inv. 180 deg rotation - cart. axis [0,0,1]             
     3s_d    16   24   23
          inv. 180 deg rotation - cart. axis [1,0,0]             
     3s_v    15   21   22
          inv. 180 deg rotation - cart. axis [0,1,0]             

   Cartesian axes

     site n.     atom                  positions (alat units)
         1           C   tau(   1) = (  -0.5000000   0.8660254   1.9498175  )
         2           C   tau(   2) = (   0.5000005   0.2886748   1.9498175  )
         3           C   tau(   3) = (  -0.5000000   0.8660254   0.6499392  )
         4           C   tau(   4) = (  -0.0000005   0.5773506   0.6499392  )

   Crystallographic axes

     site n.     atom                  positions (cryst. coord.)
         1           C   tau(   1) = (  0.0000000  1.0000000  0.7500000  )
         2           C   tau(   2) = (  0.6666670  0.3333330  0.7500000  )
         3           C   tau(   3) = (  0.0000000  1.0000000  0.2500000  )
         4           C   tau(   4) = (  0.3333330  0.6666670  0.2500000  )

     number of k points=     6  Marzari-Vanderbilt smearing, width (Ry)=  0.0200
                       cart. coord. in units 2pi/alat
        k(    1) = (   0.1250000   0.2165064   0.0961628), wk =   0.2500000
        k(    2) = (   0.1250000   0.5051815   0.0961628), wk =   0.5000000
        k(    3) = (   0.1250000  -0.3608439   0.0961628), wk =   0.5000000
        k(    4) = (   0.1250000  -0.0721688   0.0961628), wk =   0.2500000
        k(    5) = (   0.3750000   0.6495191   0.0961628), wk =   0.2500000
        k(    6) = (   0.3750000  -0.2165064   0.0961628), wk =   0.2500000

                       cryst. coord.
        k(    1) = (   0.1250000   0.1250000   0.2500000), wk =   0.2500000
        k(    2) = (   0.1250000   0.3750000   0.2500000), wk =   0.5000000
        k(    3) = (   0.1250000  -0.3750000   0.2500000), wk =   0.5000000
        k(    4) = (   0.1250000  -0.1250000   0.2500000), wk =   0.2500000
        k(    5) = (   0.3750000   0.3750000   0.2500000), wk =   0.2500000
        k(    6) = (   0.3750000  -0.3750000   0.2500000), wk =   0.2500000

     Dense  grid:    14339 G-vectors     FFT dimensions: (  24,  24,  60)

     Smooth grid:     5053 G-vectors     FFT dimensions: (  18,  18,  48)

     Dynamical RAM for                 wfc:       0.06 MB

     Dynamical RAM for     wfc (w. buffer):       0.41 MB

     Dynamical RAM for           str. fact:       0.11 MB

     Dynamical RAM for           local pot:       0.00 MB

     Dynamical RAM for          nlocal pot:       0.15 MB

     Dynamical RAM for                qrad:       0.53 MB

     Dynamical RAM for          rho,v,vnew:       0.72 MB

     Dynamical RAM for               rhoin:       0.24 MB

     Dynamical RAM for            rho*nmix:       1.75 MB

     Dynamical RAM for           G-vectors:       0.43 MB

     Dynamical RAM for          h,s,v(r/c):       0.11 MB

     Dynamical RAM for          <psi|beta>:       0.01 MB

     Dynamical RAM for                 psi:       0.23 MB

     Dynamical RAM for                hpsi:       0.23 MB

     Dynamical RAM for                spsi:       0.23 MB

     Dynamical RAM for      wfcinit/wfcrot:       0.16 MB

     Dynamical RAM for           addusdens:       5.14 MB

     Dynamical RAM for          addusforce:       5.86 MB

     Dynamical RAM for         addusstress:       5.47 MB

     Estimated static dynamical RAM per process >       5.22 MB

     Estimated max dynamical RAM per process >      11.08 MB

     Estimated total dynamical RAM >      22.16 MB

     Initial potential from superposition of free atoms

     starting charge   15.99979, renormalised to   16.00000


     %%%%%%%%%%%%%%%%%%%%%%%%%%%%%%%%%%%%%%%%%%%%%%%%%%%%%%%%%%%%%%%%%%%%%%%%
     %                                                                      %
     % You are using vdW-DF, which was implemented by the Thonhauser group. %
     % Please cite the following two papers that made this development      %
     % possible and the two reviews that describe the various versions:     %
     %                                                                      %
     %   T. Thonhauser et al., PRL 115, 136402 (2015).                      %
     %   T. Thonhauser et al., PRB 76, 125112 (2007).                       %
     %   K. Berland et al., Rep. Prog. Phys. 78, 066501 (2015).             %
     %   D.C. Langreth et al., J. Phys.: Condens. Matter 21, 084203 (2009). %
     %                                                                      %
     %                                                                      %
     % If you are calculating the stress with vdW-DF, please also cite:     %
     %                                                                      %
     %   R. Sabatini et al., J. Phys.: Condens. Matter 24, 424209 (2012).   %
     %                                                                      %
     %%%%%%%%%%%%%%%%%%%%%%%%%%%%%%%%%%%%%%%%%%%%%%%%%%%%%%%%%%%%%%%%%%%%%%%%


     Carrying out vdW-DF run using the following parameters:
     Nqs    =  20  Npoints =  1024  r_max =  100.000
     q_mesh =  0.00001000  0.04494208  0.09755937  0.15916263
               0.23128650  0.31572767  0.41458969  0.53033537
               0.66584808  0.82450364  1.01025438  1.22772762
               1.48234092  1.78043706  2.12944203  2.53805004
               3.01644009  3.57652955  4.23227104  5.00000000


     -----------------------------------------------
     Non-local corr. energy    =       0.11104074 Ry
     -----------------------------------------------

     Starting wfcs are   16 randomized atomic wfcs

     total cpu time spent up to now is        0.4 secs

     Self-consistent Calculation

     iteration #  1     ecut=    30.00 Ry     beta= 0.30
     Davidson diagonalization with overlap
     ethr =  1.00E-02,  avg # of iterations =  3.0


     -----------------------------------------------
     Non-local corr. energy    =       0.12386977 Ry
     -----------------------------------------------


     total cpu time spent up to now is        0.5 secs

     total energy              =     -46.03327239 Ry
     Harris-Foulkes estimate   =     -46.17186011 Ry
     estimated scf accuracy    <       0.44920925 Ry

     iteration #  2     ecut=    30.00 Ry     beta= 0.30
     Davidson diagonalization with overlap
     ethr =  2.81E-03,  avg # of iterations =  1.3


     -----------------------------------------------
     Non-local corr. energy    =       0.14321006 Ry
     -----------------------------------------------


     total cpu time spent up to now is        0.7 secs

     total energy              =     -45.96268173 Ry
     Harris-Foulkes estimate   =     -46.04554862 Ry
     estimated scf accuracy    <       0.15464041 Ry

     iteration #  3     ecut=    30.00 Ry     beta= 0.30
     Davidson diagonalization with overlap
     ethr =  9.67E-04,  avg # of iterations =  2.5


     -----------------------------------------------
     Non-local corr. energy    =       0.13930854 Ry
     -----------------------------------------------


     total cpu time spent up to now is        0.8 secs

     total energy              =     -45.98886176 Ry
     Harris-Foulkes estimate   =     -45.98862181 Ry
     estimated scf accuracy    <       0.00339619 Ry

     iteration #  4     ecut=    30.00 Ry     beta= 0.30
     Davidson diagonalization with overlap
     ethr =  2.12E-05,  avg # of iterations =  3.5


     -----------------------------------------------
     Non-local corr. energy    =       0.14164931 Ry
     -----------------------------------------------


     total cpu time spent up to now is        0.9 secs

     total energy              =     -45.98858568 Ry
     Harris-Foulkes estimate   =     -45.99004833 Ry
     estimated scf accuracy    <       0.00241399 Ry

     iteration #  5     ecut=    30.00 Ry     beta= 0.30
     Davidson diagonalization with overlap
     ethr =  1.51E-05,  avg # of iterations =  2.0


     -----------------------------------------------
     Non-local corr. energy    =       0.14183738 Ry
     -----------------------------------------------


     total cpu time spent up to now is        1.0 secs

     total energy              =     -45.98893228 Ry
     Harris-Foulkes estimate   =     -45.98893530 Ry
     estimated scf accuracy    <       0.00001808 Ry

     iteration #  6     ecut=    30.00 Ry     beta= 0.30
     Davidson diagonalization with overlap
     ethr =  1.13E-07,  avg # of iterations =  5.0


     -----------------------------------------------
     Non-local corr. energy    =       0.14193853 Ry
     -----------------------------------------------


     total cpu time spent up to now is        1.2 secs

     total energy              =     -45.98893854 Ry
     Harris-Foulkes estimate   =     -45.98893720 Ry
     estimated scf accuracy    <       0.00000124 Ry

     iteration #  7     ecut=    30.00 Ry     beta= 0.30
     Davidson diagonalization with overlap
     ethr =  7.76E-09,  avg # of iterations =  2.0


     -----------------------------------------------
     Non-local corr. energy    =       0.14190772 Ry
     -----------------------------------------------


     total cpu time spent up to now is        1.3 secs

     total energy              =     -45.98893923 Ry
     Harris-Foulkes estimate   =     -45.98893913 Ry
     estimated scf accuracy    <       0.00000051 Ry

     iteration #  8     ecut=    30.00 Ry     beta= 0.30
     Davidson diagonalization with overlap
     ethr =  3.20E-09,  avg # of iterations =  2.0


     -----------------------------------------------
     Non-local corr. energy    =       0.14191445 Ry
     -----------------------------------------------


     total cpu time spent up to now is        1.4 secs

     total energy              =     -45.98893951 Ry
     Harris-Foulkes estimate   =     -45.98893931 Ry
     estimated scf accuracy    <       0.00000002 Ry

     iteration #  9     ecut=    30.00 Ry     beta= 0.30
     Davidson diagonalization with overlap
     ethr =  1.27E-10,  avg # of iterations =  2.0


     -----------------------------------------------
     Non-local corr. energy    =       0.14190581 Ry
     -----------------------------------------------


     total cpu time spent up to now is        1.5 secs

     total energy              =     -45.98893960 Ry
     Harris-Foulkes estimate   =     -45.98893951 Ry
     estimated scf accuracy    <       0.00000008 Ry

     iteration # 10     ecut=    30.00 Ry     beta= 0.30
     Davidson diagonalization with overlap
     ethr =  1.27E-10,  avg # of iterations =  2.0


     -----------------------------------------------
     Non-local corr. energy    =       0.14190570 Ry
     -----------------------------------------------


     total cpu time spent up to now is        1.6 secs

     total energy              =     -45.98893965 Ry
     Harris-Foulkes estimate   =     -45.98893961 Ry
     estimated scf accuracy    <          2.5E-09 Ry

     iteration # 11     ecut=    30.00 Ry     beta= 0.30
     Davidson diagonalization with overlap
     ethr =  1.54E-11,  avg # of iterations =  1.0


     -----------------------------------------------
     Non-local corr. energy    =       0.14190456 Ry
     -----------------------------------------------


     total cpu time spent up to now is        1.7 secs

     End of self-consistent calculation

          k = 0.1250 0.2165 0.0962 (   626 PWs)   bands (ev):

   -11.0324 -10.7533   0.4341   1.0671   1.1130   2.0905   2.1720   2.2040
    14.1683  15.3917  15.7662  16.7253

     occupation numbers 
     1.0000   1.0000   1.0000   1.0000   1.0000   1.0000   1.0000   1.0000
     0.0000   0.0000   0.0000   0.0000

          k = 0.1250 0.5052 0.0962 (   635 PWs)   bands (ev):

    -7.5506  -7.3416  -4.6315  -4.4741  -0.0798   0.0025   4.3830   5.4589
     9.3948  10.0980  16.3176  16.7326

     occupation numbers 
     1.0000   1.0000   1.0000   1.0000   1.0000   1.0000   1.0000   1.0000
     0.0000   0.0000   0.0000   0.0000

          k = 0.1250-0.3608 0.0962 (   638 PWs)   bands (ev):

    -9.5974  -9.3440  -1.6857  -1.5752   0.6818   0.7501   2.1400   3.6553
    12.3196  12.9304  15.8150  16.7025

     occupation numbers 
     1.0000   1.0000   1.0000   1.0000   1.0000   1.0000   1.0000   1.0000
     0.0000   0.0000   0.0000   0.0000

          k = 0.1250-0.0722 0.0962 (   616 PWs)   bands (ev):

   -11.7622 -11.4701  -0.4483   1.2634   2.8323   2.8819   3.5027   3.5395
    13.3211  15.8964  16.0319  17.2950

     occupation numbers 
     1.0000   1.0000   1.0000   1.0000   1.0000   1.0000   1.0000   1.0000
     0.0000   0.0000   0.0000   0.0000

          k = 0.3750 0.6495 0.0962 (   638 PWs)   bands (ev):

    -5.9803  -5.8763  -5.0089  -4.9705  -2.2905  -2.1929   6.0721   6.6786
     8.4150   8.5873  18.2647  18.4077

     occupation numbers 
     1.0000   1.0000   1.0000   1.0000   1.0000   1.0000   1.0008   0.9992
     0.0000   0.0000   0.0000   0.0000

          k = 0.3750-0.2165 0.0962 (   632 PWs)   bands (ev):

    -8.8950  -8.6547  -3.3476  -3.1976   1.2510   1.3078   2.9251   4.3171
    10.8307  11.7095  15.0207  15.3585

     occupation numbers 
     1.0000   1.0000   1.0000   1.0000   1.0000   1.0000   1.0000   1.0000
     0.0000   0.0000   0.0000   0.0000

     the Fermi energy is     6.9287 ev

!    total energy              =     -45.98893970 Ry
     Harris-Foulkes estimate   =     -45.98893965 Ry
     estimated scf accuracy    <          9.1E-10 Ry

     The total energy is the sum of the following terms:

     one-electron contribution =      -7.82645129 Ry
     hartree contribution      =      12.25005584 Ry
     xc contribution           =     -14.53696571 Ry
     ewald contribution        =     -35.87599542 Ry
     smearing contrib. (-TS)   =       0.00041687 Ry

     convergence has been achieved in  11 iterations

     Forces acting on atoms (cartesian axes, Ry/au):

     atom    1 type  1   force =     0.00000000    0.00000000    0.00000000
     atom    2 type  1   force =     0.00000000    0.00000000    0.00000000
     atom    3 type  1   force =     0.00000000    0.00000000    0.00000000
     atom    4 type  1   force =     0.00000000   -0.00000000    0.00000000
     The non-local contrib.  to forces
     atom    1 type  1   force =    -0.00000000    0.00000000    0.00000000
     atom    2 type  1   force =     0.00000000    0.00000000    0.00000000
     atom    3 type  1   force =     0.00000000   -0.00000000    0.00000000
     atom    4 type  1   force =    -0.00000000   -0.00000000    0.00000000
     The ionic contribution  to forces
     atom    1 type  1   force =     0.00000852   -0.00000492   -0.00000000
     atom    2 type  1   force =    -0.00000856    0.00000494   -0.00000000
     atom    3 type  1   force =    -0.00000852    0.00000492    0.00000000
     atom    4 type  1   force =     0.00000856   -0.00000494    0.00000000
     The local contribution  to forces
     atom    1 type  1   force =    -0.00000000    0.00000000   -0.00000000
     atom    2 type  1   force =    -0.00000833    0.00000481   -0.00000000
     atom    3 type  1   force =    -0.00000000   -0.00000000    0.00000000
     atom    4 type  1   force =     0.00000833   -0.00000481    0.00000000
     The core correction contribution to forces
     atom    1 type  1   force =     0.00000000    0.00000000    0.00000000
     atom    2 type  1   force =     0.00000000    0.00000000    0.00000000
     atom    3 type  1   force =     0.00000000    0.00000000    0.00000000
     atom    4 type  1   force =     0.00000000    0.00000000    0.00000000
     The Hubbard contrib.    to forces
     atom    1 type  1   force =     0.00000000    0.00000000    0.00000000
     atom    2 type  1   force =     0.00000000    0.00000000    0.00000000
     atom    3 type  1   force =     0.00000000    0.00000000    0.00000000
     atom    4 type  1   force =     0.00000000    0.00000000    0.00000000
     The SCF correction term to forces
     atom    1 type  1   force =     0.00000000   -0.00000000   -0.00000000
     atom    2 type  1   force =     0.00000000   -0.00000000   -0.00000000
     atom    3 type  1   force =    -0.00000000    0.00000000    0.00000000
     atom    4 type  1   force =    -0.00000000    0.00000000    0.00000000

     Total force =     0.000000     Total SCF correction =     0.000000


     Computing stress (Cartesian axis) and pressure

          total   stress  (Ry/bohr**3)                   (kbar)     P=   25.51
   0.00010172  -0.00000000   0.00000000         14.96     -0.00      0.00
  -0.00000000   0.00010172  -0.00000000         -0.00     14.96     -0.00
   0.00000000   0.00000000   0.00031673          0.00      0.00     46.59

     kinetic stress (kbar)  11126.69     -0.00      0.00
                               -0.00  11126.69      0.00
                                0.00      0.00  12903.84

     local   stress (kbar) -16925.73      0.01     -0.00
                                0.01 -16925.72      0.00
                               -0.00      0.00  24257.97

     nonloc. stress (kbar)   -484.36     -0.00      0.00
                               -0.00   -484.36      0.00
                                0.00      0.00   -490.10

     hartree stress (kbar)   6782.80      0.00      0.00
                                0.00   6782.80      0.00
                                0.00      0.00  -5656.50

     exc-cor stress (kbar)  -2855.40      0.00      0.00
                                0.00  -2855.40     -0.00
                                0.00     -0.00  -3143.20

     corecor stress (kbar)      0.00      0.00      0.00
                                0.00      0.00      0.00
                                0.00      0.00      0.00

     ewald   stress (kbar)   2365.81     -0.03      0.00
                               -0.03   2365.78     -0.00
                                0.00     -0.00 -27894.46

     hubbard stress (kbar)      0.00      0.00      0.00
                                0.00      0.00      0.00
                                0.00      0.00      0.00

     london  stress (kbar)      0.00      0.00      0.00
                                0.00      0.00      0.00
                                0.00      0.00      0.00

     DFT-D3  stress (kbar)      0.00      0.00      0.00
                                0.00      0.00      0.00
                                0.00      0.00      0.00

     XDM     stress (kbar)      0.00      0.00      0.00
                                0.00      0.00      0.00
                                0.00      0.00      0.00

     dft-nl  stress (kbar)      5.17      0.00      0.00
                                0.00      5.17     -0.00
                                0.00     -0.00     69.04

     TS-vdW  stress (kbar)      0.00      0.00      0.00
                                0.00      0.00      0.00
                                0.00      0.00      0.00



     BFGS Geometry Optimization

     number of scf cycles    =   1
     number of bfgs steps    =   0

     enthalpy new            =     -45.9889396985 Ry

     new trust radius        =       0.0239044144 bohr
     new conv_thr            =       0.0000000010 Ry

     new unit-cell volume =    230.81838 a.u.^3 (    34.20376 Ang^3 )
     density =      2.33246 g/cm^3

CELL_PARAMETERS (alat=  4.66006464)
   1.002542904  -0.000000000  -0.000000000
  -0.501271452   0.868227623   0.000000000
   0.000000000  -0.000000000   2.620342183

ATOMIC_POSITIONS (crystal)
C        0.000000000   1.000000000   0.750000000
C        0.666667000   0.333333000   0.750000000
C        0.000000000   1.000000000   0.250000000
C        0.333333000   0.666667000   0.250000000



     Writing output data file graphite.save/
     NEW-OLD atomic charge density approx. for the potential


     -----------------------------------------------
     Non-local corr. energy    =       0.14432445 Ry
     -----------------------------------------------

     extrapolated charge   16.20612, renormalised to   16.00000

     total cpu time spent up to now is        2.0 secs

     Self-consistent Calculation

     iteration #  1     ecut=    30.00 Ry     beta= 0.30
     Davidson diagonalization with overlap
     ethr =  1.00E-06,  avg # of iterations =  4.2


     -----------------------------------------------
     Non-local corr. energy    =       0.14210329 Ry
     -----------------------------------------------


     total cpu time spent up to now is        2.2 secs

     total energy              =     -45.98790986 Ry
     Harris-Foulkes estimate   =     -45.90921423 Ry
     estimated scf accuracy    <       0.00083593 Ry

     iteration #  2     ecut=    30.00 Ry     beta= 0.30
     Davidson diagonalization with overlap
     ethr =  5.22E-06,  avg # of iterations =  3.5


     -----------------------------------------------
     Non-local corr. energy    =       0.14231567 Ry
     -----------------------------------------------


     total cpu time spent up to now is        2.3 secs

     total energy              =     -45.98950904 Ry
     Harris-Foulkes estimate   =     -45.98956454 Ry
     estimated scf accuracy    <       0.00021441 Ry

     iteration #  3     ecut=    30.00 Ry     beta= 0.30
     Davidson diagonalization with overlap
     ethr =  1.34E-06,  avg # of iterations =  1.0


     -----------------------------------------------
     Non-local corr. energy    =       0.14296021 Ry
     -----------------------------------------------


     total cpu time spent up to now is        2.4 secs

     total energy              =     -45.98944099 Ry
     Harris-Foulkes estimate   =     -45.98951367 Ry
     estimated scf accuracy    <       0.00010539 Ry

     iteration #  4     ecut=    30.00 Ry     beta= 0.30
     Davidson diagonalization with overlap
     ethr =  6.59E-07,  avg # of iterations =  2.3


     -----------------------------------------------
     Non-local corr. energy    =       0.14285706 Ry
     -----------------------------------------------


     total cpu time spent up to now is        2.5 secs

     total energy              =     -45.98946822 Ry
     Harris-Foulkes estimate   =     -45.98947474 Ry
     estimated scf accuracy    <       0.00001534 Ry

     iteration #  5     ecut=    30.00 Ry     beta= 0.30
     Davidson diagonalization with overlap
     ethr =  9.59E-08,  avg # of iterations =  1.8


     -----------------------------------------------
     Non-local corr. energy    =       0.14278471 Ry
     -----------------------------------------------


     total cpu time spent up to now is        2.6 secs

     total energy              =     -45.98946693 Ry
     Harris-Foulkes estimate   =     -45.98946896 Ry
     estimated scf accuracy    <       0.00000376 Ry

     iteration #  6     ecut=    30.00 Ry     beta= 0.30
     Davidson diagonalization with overlap
     ethr =  2.35E-08,  avg # of iterations =  2.0


     -----------------------------------------------
     Non-local corr. energy    =       0.14275925 Ry
     -----------------------------------------------


     total cpu time spent up to now is        2.7 secs

     total energy              =     -45.98946708 Ry
     Harris-Foulkes estimate   =     -45.98946728 Ry
     estimated scf accuracy    <       0.00000032 Ry

     iteration #  7     ecut=    30.00 Ry     beta= 0.30
     Davidson diagonalization with overlap
     ethr =  2.01E-09,  avg # of iterations =  2.0


     -----------------------------------------------
     Non-local corr. energy    =       0.14274662 Ry
     -----------------------------------------------


     total cpu time spent up to now is        2.8 secs

     total energy              =     -45.98946713 Ry
     Harris-Foulkes estimate   =     -45.98946713 Ry
     estimated scf accuracy    <          7.6E-09 Ry

     iteration #  8     ecut=    30.00 Ry     beta= 0.30
     Davidson diagonalization with overlap
     ethr =  4.76E-11,  avg # of iterations =  2.3


     -----------------------------------------------
     Non-local corr. energy    =       0.14275373 Ry
     -----------------------------------------------


     total cpu time spent up to now is        2.9 secs

     total energy              =     -45.98946713 Ry
     Harris-Foulkes estimate   =     -45.98946714 Ry
     estimated scf accuracy    <       0.00000003 Ry

     iteration #  9     ecut=    30.00 Ry     beta= 0.30
     Davidson diagonalization with overlap
     ethr =  4.76E-11,  avg # of iterations =  2.0


     -----------------------------------------------
     Non-local corr. energy    =       0.14275627 Ry
     -----------------------------------------------


     total cpu time spent up to now is        3.0 secs

     total energy              =     -45.98946713 Ry
     Harris-Foulkes estimate   =     -45.98946713 Ry
     estimated scf accuracy    <          1.6E-09 Ry

     iteration # 10     ecut=    30.00 Ry     beta= 0.30
     Davidson diagonalization with overlap
     ethr =  9.77E-12,  avg # of iterations =  2.0


     -----------------------------------------------
     Non-local corr. energy    =       0.14275583 Ry
     -----------------------------------------------


     total cpu time spent up to now is        3.1 secs

     End of self-consistent calculation

          k = 0.1247 0.2160 0.0954 (   626 PWs)   bands (ev):

   -11.1225 -10.8579   0.3460   0.9217   0.9651   1.9481   2.0331   2.0633
    13.9254  15.1887  15.5466  16.5158

     occupation numbers 
     1.0000   1.0000   1.0000   1.0000   1.0000   1.0000   1.0000   1.0000
     0.0000   0.0000   0.0000   0.0000

          k = 0.1247 0.5039 0.0954 (   635 PWs)   bands (ev):

    -7.6609  -7.4632  -4.7465  -4.5981  -0.2050  -0.1274   4.2658   5.3043
     9.2396   9.9177  16.0936  16.4892

     occupation numbers 
     1.0000   1.0000   1.0000   1.0000   1.0000   1.0000   1.0000   1.0000
     0.0000   0.0000   0.0000   0.0000

          k = 0.1247-0.3599 0.0954 (   638 PWs)   bands (ev):

    -9.6950  -9.4548  -1.8180  -1.7138   0.5527   0.6169   2.0406   3.5050
    12.1444  12.7306  15.5744  16.4799

     occupation numbers 
     1.0000   1.0000   1.0000   1.0000   1.0000   1.0000   1.0000   1.0000
     0.0000   0.0000   0.0000   0.0000

          k = 0.1247-0.0720 0.0954 (   616 PWs)   bands (ev):

   -11.8487 -11.5716  -0.5308   1.1254   2.6825   2.7292   3.3539   3.3885
    13.0778  15.6909  15.8197  17.0825

     occupation numbers 
     1.0000   1.0000   1.0000   1.0000   1.0000   1.0000   1.0000   1.0000
     0.0000   0.0000   0.0000   0.0000

          k = 0.3740 0.6479 0.0954 (   638 PWs)   bands (ev):

    -6.1051  -6.0068  -5.1279  -5.0924  -2.3987  -2.3073   5.9411   6.5267
     8.2559   8.4184  18.0760  18.2072

     occupation numbers 
     1.0000   1.0000   1.0000   1.0000   1.0000   1.0000   1.0011   0.9989
     0.0000   0.0000   0.0000   0.0000

          k = 0.3740-0.2160 0.0954 (   632 PWs)   bands (ev):

    -8.9965  -8.7689  -3.4694  -3.3276   1.1187   1.1722   2.8197   4.1643
    10.6705  11.5159  14.8016  15.1229

     occupation numbers 
     1.0000   1.0000   1.0000   1.0000   1.0000   1.0000   1.0000   1.0000
     0.0000   0.0000   0.0000   0.0000

     the Fermi energy is     6.7765 ev

!    total energy              =     -45.98946713 Ry
     Harris-Foulkes estimate   =     -45.98946713 Ry
     estimated scf accuracy    <          3.3E-11 Ry

     The total energy is the sum of the following terms:

     one-electron contribution =      -8.34130509 Ry
     hartree contribution      =      12.41870639 Ry
     xc contribution           =     -14.51334949 Ry
     ewald contribution        =     -35.55393942 Ry
     smearing contrib. (-TS)   =       0.00042049 Ry

     convergence has been achieved in  10 iterations

     Forces acting on atoms (cartesian axes, Ry/au):

     atom    1 type  1   force =    -0.00000000   -0.00000000   -0.00000000
     atom    2 type  1   force =    -0.00000000   -0.00000000   -0.00000000
     atom    3 type  1   force =    -0.00000000   -0.00000000   -0.00000000
     atom    4 type  1   force =     0.00000000    0.00000000    0.00000000
     The non-local contrib.  to forces
     atom    1 type  1   force =    -0.00000000   -0.00000000   -0.00000000
     atom    2 type  1   force =     0.00000000   -0.00000000   -0.00000000
     atom    3 type  1   force =     0.00000000    0.00000000    0.00000000
     atom    4 type  1   force =     0.00000000   -0.00000000   -0.00000000
     The ionic contribution  to forces
     atom    1 type  1   force =     0.00000848   -0.00000489   -0.00000000
     atom    2 type  1   force =    -0.00000851    0.00000491   -0.00000000
     atom    3 type  1   force =    -0.00000848    0.00000489    0.00000000
     atom    4 type  1   force =     0.00000851   -0.00000491    0.00000000
     The local contribution  to forces
     atom    1 type  1   force =     0.00000000    0.00000000   -0.00000000
     atom    2 type  1   force =    -0.00000836    0.00000483   -0.00000000
     atom    3 type  1   force =    -0.00000000   -0.00000000    0.00000000
     atom    4 type  1   force =     0.00000836   -0.00000483    0.00000000
     The core correction contribution to forces
     atom    1 type  1   force =     0.00000000    0.00000000    0.00000000
     atom    2 type  1   force =     0.00000000    0.00000000    0.00000000
     atom    3 type  1   force =     0.00000000    0.00000000    0.00000000
     atom    4 type  1   force =     0.00000000    0.00000000    0.00000000
     The Hubbard contrib.    to forces
     atom    1 type  1   force =     0.00000000    0.00000000    0.00000000
     atom    2 type  1   force =     0.00000000    0.00000000    0.00000000
     atom    3 type  1   force =     0.00000000    0.00000000    0.00000000
     atom    4 type  1   force =     0.00000000    0.00000000    0.00000000
     The SCF correction term to forces
     atom    1 type  1   force =     0.00000000   -0.00000000    0.00000000
     atom    2 type  1   force =     0.00000000   -0.00000000    0.00000000
     atom    3 type  1   force =    -0.00000000    0.00000000   -0.00000000
     atom    4 type  1   force =    -0.00000000    0.00000000   -0.00000000

     Total force =     0.000000     Total SCF correction =     0.000000


     Computing stress (Cartesian axis) and pressure

          total   stress  (Ry/bohr**3)                   (kbar)     P=    2.68
  -0.00010867  -0.00000000   0.00000000        -15.99     -0.00      0.00
  -0.00000000  -0.00010867   0.00000000         -0.00    -15.99      0.00
  -0.00000000  -0.00000000   0.00027207         -0.00     -0.00     40.02

     kinetic stress (kbar)  10951.22      0.00      0.00
                                0.00  10951.22      0.00
                                0.00     -0.00  12712.97

     local   stress (kbar) -16960.32      0.01     -0.00
                                0.01 -16960.30      0.00
                               -0.00      0.00  24127.34

     nonloc. stress (kbar)   -471.67      0.00     -0.00
                                0.00   -471.67     -0.00
                               -0.00     -0.00   -478.60

     hartree stress (kbar)   6797.69      0.00      0.00
                                0.00   6797.69      0.00
                                0.00      0.00  -5680.69

     exc-cor stress (kbar)  -2814.19     -0.00      0.00
                               -0.00  -2814.19     -0.00
                                0.00     -0.00  -3098.09

     corecor stress (kbar)      0.00      0.00      0.00
                                0.00      0.00      0.00
                                0.00      0.00      0.00

     ewald   stress (kbar)   2476.18     -0.03      0.00
                               -0.03   2476.15     -0.00
                                0.00     -0.00 -27611.55

     hubbard stress (kbar)      0.00      0.00      0.00
                                0.00      0.00      0.00
                                0.00      0.00      0.00

     london  stress (kbar)      0.00      0.00      0.00
                                0.00      0.00      0.00
                                0.00      0.00      0.00

     DFT-D3  stress (kbar)      0.00      0.00      0.00
                                0.00      0.00      0.00
                                0.00      0.00      0.00

     XDM     stress (kbar)      0.00      0.00      0.00
                                0.00      0.00      0.00
                                0.00      0.00      0.00

     dft-nl  stress (kbar)      5.11      0.00      0.00
                                0.00      5.11      0.00
                                0.00      0.00     68.64

     TS-vdW  stress (kbar)      0.00      0.00      0.00
                                0.00      0.00      0.00
                                0.00      0.00      0.00



     number of scf cycles    =   2
     number of bfgs steps    =   1

     enthalpy old            =     -45.9889396985 Ry
     enthalpy new            =     -45.9894671287 Ry

     CASE: enthalpy_new < enthalpy_old

     new trust radius        =       0.0358063195 bohr
     new conv_thr            =            1.0E-11 Ry

     new unit-cell volume =    233.59316 a.u.^3 (    34.61493 Ang^3 )
     density =      2.30475 g/cm^3

CELL_PARAMETERS (alat=  4.66006464)
   1.002660521   0.000000000   0.000000000
  -0.501330260   0.868329482   0.000000000
   0.000000000   0.000000000   2.651220420

ATOMIC_POSITIONS (crystal)
C       -0.000000000   1.000000000   0.750000000
C        0.666667000   0.333333000   0.750000000
C       -0.000000000   1.000000000   0.250000000
C        0.333333000   0.666667000   0.250000000



     Writing output data file graphite.save/
     NEW-OLD atomic charge density approx. for the potential


     -----------------------------------------------
     Non-local corr. energy    =       0.14522380 Ry
     -----------------------------------------------

     extrapolated charge   16.19006, renormalised to   16.00000

     total cpu time spent up to now is        3.5 secs

     Self-consistent Calculation

     iteration #  1     ecut=    30.00 Ry     beta= 0.30
     Davidson diagonalization with overlap
     ethr =  1.00E-06,  avg # of iterations =  7.8


     -----------------------------------------------
     Non-local corr. energy    =       0.14320584 Ry
     -----------------------------------------------


     total cpu time spent up to now is        3.7 secs

     total energy              =     -45.98882740 Ry
     Harris-Foulkes estimate   =     -45.90793487 Ry
     estimated scf accuracy    <       0.00058019 Ry

     iteration #  2     ecut=    30.00 Ry     beta= 0.30
     Davidson diagonalization with overlap
     ethr =  3.63E-06,  avg # of iterations =  5.2


     -----------------------------------------------
     Non-local corr. energy    =       0.14339999 Ry
     -----------------------------------------------


     total cpu time spent up to now is        3.9 secs

     total energy              =     -45.99016928 Ry
     Harris-Foulkes estimate   =     -45.99022842 Ry
     estimated scf accuracy    <       0.00025805 Ry

     iteration #  3     ecut=    30.00 Ry     beta= 0.30
     Davidson diagonalization with overlap
     ethr =  1.61E-06,  avg # of iterations =  1.0


     -----------------------------------------------
     Non-local corr. energy    =       0.14407261 Ry
     -----------------------------------------------


     total cpu time spent up to now is        4.0 secs

     total energy              =     -45.99008203 Ry
     Harris-Foulkes estimate   =     -45.99017349 Ry
     estimated scf accuracy    <       0.00013790 Ry

     iteration #  4     ecut=    30.00 Ry     beta= 0.30
     Davidson diagonalization with overlap
     ethr =  8.62E-07,  avg # of iterations =  2.5


     -----------------------------------------------
     Non-local corr. energy    =       0.14395022 Ry
     -----------------------------------------------


     total cpu time spent up to now is        4.1 secs

     total energy              =     -45.99011628 Ry
     Harris-Foulkes estimate   =     -45.99012556 Ry
     estimated scf accuracy    <       0.00002121 Ry

     iteration #  5     ecut=    30.00 Ry     beta= 0.30
     Davidson diagonalization with overlap
     ethr =  1.33E-07,  avg # of iterations =  1.8


     -----------------------------------------------
     Non-local corr. energy    =       0.14385142 Ry
     -----------------------------------------------


     total cpu time spent up to now is        4.2 secs

     total energy              =     -45.99011443 Ry
     Harris-Foulkes estimate   =     -45.99011738 Ry
     estimated scf accuracy    <       0.00000477 Ry

     iteration #  6     ecut=    30.00 Ry     beta= 0.30
     Davidson diagonalization with overlap
     ethr =  2.98E-08,  avg # of iterations =  2.0


     -----------------------------------------------
     Non-local corr. energy    =       0.14384167 Ry
     -----------------------------------------------


     total cpu time spent up to now is        4.3 secs

     total energy              =     -45.99011506 Ry
     Harris-Foulkes estimate   =     -45.99011510 Ry
     estimated scf accuracy    <       0.00000008 Ry

     iteration #  7     ecut=    30.00 Ry     beta= 0.30
     Davidson diagonalization with overlap
     ethr =  5.29E-10,  avg # of iterations =  2.0


     -----------------------------------------------
     Non-local corr. energy    =       0.14382560 Ry
     -----------------------------------------------


     total cpu time spent up to now is        4.5 secs

     total energy              =     -45.99011507 Ry
     Harris-Foulkes estimate   =     -45.99011508 Ry
     estimated scf accuracy    <       0.00000002 Ry

     iteration #  8     ecut=    30.00 Ry     beta= 0.30
     Davidson diagonalization with overlap
     ethr =  1.05E-10,  avg # of iterations =  2.0


     -----------------------------------------------
     Non-local corr. energy    =       0.14383745 Ry
     -----------------------------------------------


     total cpu time spent up to now is        4.6 secs

     total energy              =     -45.99011506 Ry
     Harris-Foulkes estimate   =     -45.99011509 Ry
     estimated scf accuracy    <       0.00000005 Ry

     iteration #  9     ecut=    30.00 Ry     beta= 0.30
     Davidson diagonalization with overlap
     ethr =  1.05E-10,  avg # of iterations =  2.0


     -----------------------------------------------
     Non-local corr. energy    =       0.14383802 Ry
     -----------------------------------------------


     total cpu time spent up to now is        4.7 secs

     total energy              =     -45.99011507 Ry
     Harris-Foulkes estimate   =     -45.99011507 Ry
     estimated scf accuracy    <          4.9E-11 Ry

     iteration # 10     ecut=    30.00 Ry     beta= 0.30
     Davidson diagonalization with overlap
     ethr =  3.04E-13,  avg # of iterations =  2.5


     -----------------------------------------------
     Non-local corr. energy    =       0.14383724 Ry
     -----------------------------------------------


     total cpu time spent up to now is        4.9 secs

     total energy              =     -45.99011507 Ry
     Harris-Foulkes estimate   =     -45.99011507 Ry
     estimated scf accuracy    <          2.2E-10 Ry

     iteration # 11     ecut=    30.00 Ry     beta= 0.30
     Davidson diagonalization with overlap
     ethr =  3.04E-13,  avg # of iterations =  2.0


     -----------------------------------------------
     Non-local corr. energy    =       0.14383726 Ry
     -----------------------------------------------


     total cpu time spent up to now is        5.0 secs

     End of self-consistent calculation

          k = 0.1247 0.2159 0.0943 (   626 PWs)   bands (ev):

   -11.2500 -11.0069   0.2424   0.7815   0.8206   1.7623   1.8920   1.9192
    13.6206  15.0630  15.3961  16.3703

     occupation numbers 
     1.0000   1.0000   1.0000   1.0000   1.0000   1.0000   1.0000   1.0000
     0.0000   0.0000   0.0000   0.0000

          k = 0.1247 0.5038 0.0943 (   635 PWs)   bands (ev):

    -7.7921  -7.6112  -4.8803  -4.7448  -0.3428  -0.2727   4.1550   5.1384
     9.1114   9.7561  15.9626  16.3307

     occupation numbers 
     1.0000   1.0000   1.0000   1.0000   1.0000   1.0000   1.0000   1.0000
     0.0000   0.0000   0.0000   0.0000

          k = 0.1247-0.3599 0.0943 (   638 PWs)   bands (ev):

    -9.8238  -9.6035  -1.9547  -1.8600   0.4140   0.4720   1.9353   3.3234
    12.0222  12.5738  15.2901  16.3439

     occupation numbers 
     1.0000   1.0000   1.0000   1.0000   1.0000   1.0000   1.0000   1.0000
     0.0000   0.0000   0.0000   0.0000

          k = 0.1247-0.0720 0.0943 (   616 PWs)   bands (ev):

   -11.9755 -11.7208  -0.6338   0.9380   2.5417   2.5838   3.2124   3.2434
    12.7650  15.5502  15.6702  17.0522

     occupation numbers 
     1.0000   1.0000   1.0000   1.0000   1.0000   1.0000   1.0000   1.0000
     0.0000   0.0000   0.0000   0.0000

          k = 0.3740 0.6478 0.0943 (   638 PWs)   bands (ev):

    -6.2404  -6.1507  -5.2674  -5.2348  -2.5349  -2.4518   5.8264   6.3797
     8.1166   8.2616  17.9111  18.0393

     occupation numbers 
     1.0000   1.0000   1.0000   1.0000   1.0000   1.0000   1.0019   0.9981
     0.0000   0.0000   0.0000   0.0000

          k = 0.3740-0.2159 0.0943 (   632 PWs)   bands (ev):

    -9.1261  -8.9174  -3.6038  -3.4746   0.9792   1.0273   2.7129   3.9870
    10.5504  11.3500  14.6698  14.9641

     occupation numbers 
     1.0000   1.0000   1.0000   1.0000   1.0000   1.0000   1.0000   1.0000
     0.0000   0.0000   0.0000   0.0000

     the Fermi energy is     6.6290 ev

!    total energy              =     -45.99011507 Ry
     Harris-Foulkes estimate   =     -45.99011507 Ry
     estimated scf accuracy    <          2.7E-14 Ry

     The total energy is the sum of the following terms:

     one-electron contribution =      -9.19947367 Ry
     hartree contribution      =      12.76237642 Ry
     xc contribution           =     -14.50899608 Ry
     ewald contribution        =     -35.04445025 Ry
     smearing contrib. (-TS)   =       0.00042850 Ry

     convergence has been achieved in  11 iterations

     Forces acting on atoms (cartesian axes, Ry/au):

     atom    1 type  1   force =     0.00000000    0.00000000   -0.00000000
     atom    2 type  1   force =    -0.00000000   -0.00000000    0.00000000
     atom    3 type  1   force =    -0.00000000   -0.00000000    0.00000000
     atom    4 type  1   force =     0.00000000   -0.00000000   -0.00000000
     The non-local contrib.  to forces
     atom    1 type  1   force =     0.00000000    0.00000000   -0.00000000
     atom    2 type  1   force =     0.00000000    0.00000000   -0.00000000
     atom    3 type  1   force =    -0.00000000   -0.00000000    0.00000000
     atom    4 type  1   force =    -0.00000000    0.00000000    0.00000000
     The ionic contribution  to forces
     atom    1 type  1   force =     0.00000848   -0.00000489   -0.00000000
     atom    2 type  1   force =    -0.00000851    0.00000491   -0.00000000
     atom    3 type  1   force =    -0.00000848    0.00000489    0.00000000
     atom    4 type  1   force =     0.00000851   -0.00000491    0.00000000
     The local contribution  to forces
     atom    1 type  1   force =    -0.00000000    0.00000000   -0.00000000
     atom    2 type  1   force =    -0.00000836    0.00000483   -0.00000000
     atom    3 type  1   force =    -0.00000000   -0.00000000    0.00000000
     atom    4 type  1   force =     0.00000836   -0.00000483    0.00000000
     The core correction contribution to forces
     atom    1 type  1   force =     0.00000000    0.00000000    0.00000000
     atom    2 type  1   force =     0.00000000    0.00000000    0.00000000
     atom    3 type  1   force =     0.00000000    0.00000000    0.00000000
     atom    4 type  1   force =     0.00000000    0.00000000    0.00000000
     The Hubbard contrib.    to forces
     atom    1 type  1   force =     0.00000000    0.00000000    0.00000000
     atom    2 type  1   force =     0.00000000    0.00000000    0.00000000
     atom    3 type  1   force =     0.00000000    0.00000000    0.00000000
     atom    4 type  1   force =     0.00000000    0.00000000    0.00000000
     The SCF correction term to forces
     atom    1 type  1   force =     0.00000000   -0.00000000    0.00000000
     atom    2 type  1   force =     0.00000000   -0.00000000   -0.00000000
     atom    3 type  1   force =    -0.00000000    0.00000000   -0.00000000
     atom    4 type  1   force =    -0.00000000    0.00000000   -0.00000000

     Total force =     0.000000     Total SCF correction =     0.000000


     Computing stress (Cartesian axis) and pressure

          total   stress  (Ry/bohr**3)                   (kbar)     P=   -0.84
  -0.00011332   0.00000000  -0.00000000        -16.67      0.00     -0.00
  -0.00000000  -0.00011332   0.00000000         -0.00    -16.67      0.00
  -0.00000000   0.00000000   0.00020957         -0.00      0.00     30.83

     kinetic stress (kbar)  10818.96     -0.00      0.00
                               -0.00  10818.96      0.00
                               -0.00     -0.00  12552.97

     local   stress (kbar) -17291.28      0.01     -0.00
                                0.01 -17291.27     -0.00
                               -0.00     -0.00  24368.08

     nonloc. stress (kbar)   -465.84      0.00      0.00
                                0.00   -465.84      0.00
                               -0.00     -0.00   -472.35

     hartree stress (kbar)   6932.89     -0.00      0.00
                               -0.00   6932.89      0.00
                                0.00      0.00  -5828.68

     exc-cor stress (kbar)  -2780.11     -0.00     -0.00
                               -0.00  -2780.11     -0.00
                               -0.00     -0.00  -3061.30

     corecor stress (kbar)      0.00      0.00      0.00
                                0.00      0.00      0.00
                                0.00      0.00      0.00

     ewald   stress (kbar)   2763.73     -0.02      0.00
                               -0.02   2763.71      0.00
                                0.00      0.00 -27596.65

     hubbard stress (kbar)      0.00      0.00      0.00
                                0.00      0.00      0.00
                                0.00      0.00      0.00

     london  stress (kbar)      0.00      0.00      0.00
                                0.00      0.00      0.00
                                0.00      0.00      0.00

     DFT-D3  stress (kbar)      0.00      0.00      0.00
                                0.00      0.00      0.00
                                0.00      0.00      0.00

     XDM     stress (kbar)      0.00      0.00      0.00
                                0.00      0.00      0.00
                                0.00      0.00      0.00

     dft-nl  stress (kbar)      4.98      0.00      0.00
                                0.00      4.98      0.00
                                0.00      0.00     68.76

     TS-vdW  stress (kbar)      0.00      0.00      0.00
                                0.00      0.00      0.00
                                0.00      0.00      0.00



     number of scf cycles    =   3
     number of bfgs steps    =   2

     enthalpy old            =     -45.9894671287 Ry
     enthalpy new            =     -45.9901150714 Ry

     CASE: enthalpy_new < enthalpy_old

     new trust radius        =       0.0534020557 bohr
     new conv_thr            =            1.0E-11 Ry

     new unit-cell volume =    237.44833 a.u.^3 (    35.18621 Ang^3 )
     density =      2.26734 g/cm^3

CELL_PARAMETERS (alat=  4.66006464)
   1.002184236   0.000000000  -0.000000000
  -0.501092118   0.867917008   0.000000000
  -0.000000000  -0.000000000   2.697537776

ATOMIC_POSITIONS (crystal)
C       -0.000000000   1.000000000   0.750000000
C        0.666667000   0.333333000   0.750000000
C       -0.000000000   1.000000000   0.250000000
C        0.333333000   0.666667000   0.250000000



     Writing output data file graphite.save/
     NEW-OLD atomic charge density approx. for the potential


     -----------------------------------------------
     Non-local corr. energy    =       0.14725141 Ry
     -----------------------------------------------

     extrapolated charge   16.25977, renormalised to   16.00000

     total cpu time spent up to now is        5.4 secs

     Self-consistent Calculation

     iteration #  1     ecut=    30.00 Ry     beta= 0.30
     Davidson diagonalization with overlap
     ethr =  1.00E-06,  avg # of iterations =  7.3


     -----------------------------------------------
     Non-local corr. energy    =       0.14446516 Ry
     -----------------------------------------------


     total cpu time spent up to now is        5.6 secs

     total energy              =     -45.98830142 Ry
     Harris-Foulkes estimate   =     -45.86080746 Ry
     estimated scf accuracy    <       0.00109386 Ry

     iteration #  2     ecut=    30.00 Ry     beta= 0.30
     Davidson diagonalization with overlap
     ethr =  6.84E-06,  avg # of iterations =  4.2


     -----------------------------------------------
     Non-local corr. energy    =       0.14473754 Ry
     -----------------------------------------------


     total cpu time spent up to now is        5.7 secs

     total energy              =     -45.99093215 Ry
     Harris-Foulkes estimate   =     -45.99105528 Ry
     estimated scf accuracy    <       0.00054727 Ry

     iteration #  3     ecut=    30.00 Ry     beta= 0.30
     Davidson diagonalization with overlap
     ethr =  3.42E-06,  avg # of iterations =  1.0


     -----------------------------------------------
     Non-local corr. energy    =       0.14570910 Ry
     -----------------------------------------------


     total cpu time spent up to now is        5.8 secs

     total energy              =     -45.99074289 Ry
     Harris-Foulkes estimate   =     -45.99094068 Ry
     estimated scf accuracy    <       0.00029694 Ry

     iteration #  4     ecut=    30.00 Ry     beta= 0.30
     Davidson diagonalization with overlap
     ethr =  1.86E-06,  avg # of iterations =  2.5


     -----------------------------------------------
     Non-local corr. energy    =       0.14553715 Ry
     -----------------------------------------------


     total cpu time spent up to now is        5.9 secs

     total energy              =     -45.99081774 Ry
     Harris-Foulkes estimate   =     -45.99083716 Ry
     estimated scf accuracy    <       0.00004563 Ry

     iteration #  5     ecut=    30.00 Ry     beta= 0.30
     Davidson diagonalization with overlap
     ethr =  2.85E-07,  avg # of iterations =  1.7


     -----------------------------------------------
     Non-local corr. energy    =       0.14537636 Ry
     -----------------------------------------------


     total cpu time spent up to now is        6.0 secs

     total energy              =     -45.99081277 Ry
     Harris-Foulkes estimate   =     -45.99081996 Ry
     estimated scf accuracy    <       0.00001108 Ry

     iteration #  6     ecut=    30.00 Ry     beta= 0.30
     Davidson diagonalization with overlap
     ethr =  6.93E-08,  avg # of iterations =  2.0


     -----------------------------------------------
     Non-local corr. energy    =       0.14537353 Ry
     -----------------------------------------------


     total cpu time spent up to now is        6.1 secs

     total energy              =     -45.99081460 Ry
     Harris-Foulkes estimate   =     -45.99081459 Ry
     estimated scf accuracy    <       0.00000005 Ry

     iteration #  7     ecut=    30.00 Ry     beta= 0.30
     Davidson diagonalization with overlap
     ethr =  2.93E-10,  avg # of iterations =  2.5


     -----------------------------------------------
     Non-local corr. energy    =       0.14535098 Ry
     -----------------------------------------------


     total cpu time spent up to now is        6.2 secs

     total energy              =     -45.99081460 Ry
     Harris-Foulkes estimate   =     -45.99081461 Ry
     estimated scf accuracy    <       0.00000004 Ry

     iteration #  8     ecut=    30.00 Ry     beta= 0.30
     Davidson diagonalization with overlap
     ethr =  2.60E-10,  avg # of iterations =  2.0


     -----------------------------------------------
     Non-local corr. energy    =       0.14537092 Ry
     -----------------------------------------------


     total cpu time spent up to now is        6.3 secs

     total energy              =     -45.99081458 Ry
     Harris-Foulkes estimate   =     -45.99081464 Ry
     estimated scf accuracy    <       0.00000008 Ry

     iteration #  9     ecut=    30.00 Ry     beta= 0.30
     Davidson diagonalization with overlap
     ethr =  2.60E-10,  avg # of iterations =  2.0


     -----------------------------------------------
     Non-local corr. energy    =       0.14536903 Ry
     -----------------------------------------------


     total cpu time spent up to now is        6.4 secs

     total energy              =     -45.99081460 Ry
     Harris-Foulkes estimate   =     -45.99081460 Ry
     estimated scf accuracy    <          6.2E-09 Ry

     iteration # 10     ecut=    30.00 Ry     beta= 0.30
     Davidson diagonalization with overlap
     ethr =  3.85E-11,  avg # of iterations =  1.3


     -----------------------------------------------
     Non-local corr. energy    =       0.14536678 Ry
     -----------------------------------------------


     total cpu time spent up to now is        6.5 secs

     total energy              =     -45.99081460 Ry
     Harris-Foulkes estimate   =     -45.99081460 Ry
     estimated scf accuracy    <          1.9E-09 Ry

     iteration # 11     ecut=    30.00 Ry     beta= 0.30
     Davidson diagonalization with overlap
     ethr =  1.18E-11,  avg # of iterations =  2.0


     -----------------------------------------------
     Non-local corr. energy    =       0.14536680 Ry
     -----------------------------------------------


     total cpu time spent up to now is        6.6 secs

     End of self-consistent calculation

          k = 0.1247 0.2160 0.0927 (   626 PWs)   bands (ev):

   -11.4365 -11.2227   0.0949   0.5895   0.6229   1.4983   1.6972   1.7204
    13.1921  14.9085  15.2076  16.1832

     occupation numbers 
     1.0000   1.0000   1.0000   1.0000   1.0000   1.0000   1.0000   1.0000
     0.0000   0.0000   0.0000   0.0000

          k = 0.1247 0.5041 0.0927 (   635 PWs)   bands (ev):

    -7.9792  -7.8209  -5.0700  -4.9520  -0.5362  -0.4760   4.0030   4.9085
     8.9424   9.5399  15.8056  16.1358

     occupation numbers 
     1.0000   1.0000   1.0000   1.0000   1.0000   1.0000   1.0000   1.0000
     0.0000   0.0000   0.0000   0.0000

          k = 0.1247-0.3601 0.0927 (   638 PWs)   bands (ev):

   -10.0105  -9.8172  -2.1444  -2.0626   0.2202   0.2700   1.7878   3.0680
    11.8667  12.3699  14.8914  16.1788

     occupation numbers 
     1.0000   1.0000   1.0000   1.0000   1.0000   1.0000   1.0000   1.0000
     0.0000   0.0000   0.0000   0.0000

          k = 0.1247-0.0720 0.0927 (   616 PWs)   bands (ev):

   -12.1619 -11.9377  -0.7817   0.6704   2.3502   2.3860   3.0196   3.0458
    12.3246  15.3716  15.4816  16.5754

     occupation numbers 
     1.0000   1.0000   1.0000   1.0000   1.0000   1.0000   1.0000   1.0000
     0.0000   0.0000   0.0000   0.0000

          k = 0.3742 0.6481 0.0927 (   638 PWs)   bands (ev):

    -6.4301  -6.3520  -5.4648  -5.4360  -2.7300  -2.6579   5.6709   6.1784
     7.9302   8.0516  17.6924  17.8146

     occupation numbers 
     1.0000   1.0000   1.0000   1.0000   1.0000   1.0000   1.0038   0.9962
     0.0000   0.0000   0.0000   0.0000

          k = 0.3742-0.2160 0.0927 (   632 PWs)   bands (ev):

    -9.3129  -9.1300  -3.7928  -3.6806   0.7851   0.8258   2.5645   3.7388
    10.3949  11.1302  14.5098  14.7662

     occupation numbers 
     1.0000   1.0000   1.0000   1.0000   1.0000   1.0000   1.0000   1.0000
     0.0000   0.0000   0.0000   0.0000

     the Fermi energy is     6.4264 ev

!    total energy              =     -45.99081460 Ry
     Harris-Foulkes estimate   =     -45.99081460 Ry
     estimated scf accuracy    <          1.4E-13 Ry

     The total energy is the sum of the following terms:

     one-electron contribution =     -10.51027790 Ry
     hartree contribution      =      13.30133929 Ry
     xc contribution           =     -14.50831661 Ry
     ewald contribution        =     -34.27400676 Ry
     smearing contrib. (-TS)   =       0.00044739 Ry

     convergence has been achieved in  11 iterations

     Forces acting on atoms (cartesian axes, Ry/au):

     atom    1 type  1   force =    -0.00000000   -0.00000000   -0.00000000
     atom    2 type  1   force =    -0.00000000    0.00000000    0.00000000
     atom    3 type  1   force =     0.00000000   -0.00000000   -0.00000000
     atom    4 type  1   force =     0.00000000    0.00000000    0.00000000
     The non-local contrib.  to forces
     atom    1 type  1   force =    -0.00000000   -0.00000000   -0.00000000
     atom    2 type  1   force =    -0.00000000   -0.00000000   -0.00000000
     atom    3 type  1   force =    -0.00000000   -0.00000000   -0.00000000
     atom    4 type  1   force =     0.00000000    0.00000000    0.00000000
     The ionic contribution  to forces
     atom    1 type  1   force =     0.00000848   -0.00000490   -0.00000000
     atom    2 type  1   force =    -0.00000851    0.00000491   -0.00000000
     atom    3 type  1   force =    -0.00000848    0.00000490    0.00000000
     atom    4 type  1   force =     0.00000851   -0.00000491    0.00000000
     The local contribution  to forces
     atom    1 type  1   force =     0.00000000    0.00000000   -0.00000000
     atom    2 type  1   force =    -0.00000835    0.00000482   -0.00000000
     atom    3 type  1   force =     0.00000000   -0.00000000    0.00000000
     atom    4 type  1   force =     0.00000835   -0.00000482    0.00000000
     The core correction contribution to forces
     atom    1 type  1   force =     0.00000000    0.00000000    0.00000000
     atom    2 type  1   force =     0.00000000    0.00000000    0.00000000
     atom    3 type  1   force =     0.00000000    0.00000000    0.00000000
     atom    4 type  1   force =     0.00000000    0.00000000    0.00000000
     The Hubbard contrib.    to forces
     atom    1 type  1   force =     0.00000000    0.00000000    0.00000000
     atom    2 type  1   force =     0.00000000    0.00000000    0.00000000
     atom    3 type  1   force =     0.00000000    0.00000000    0.00000000
     atom    4 type  1   force =     0.00000000    0.00000000    0.00000000
     The SCF correction term to forces
     atom    1 type  1   force =    -0.00000000    0.00000000    0.00000000
     atom    2 type  1   force =     0.00000000   -0.00000000    0.00000000
     atom    3 type  1   force =     0.00000000   -0.00000000   -0.00000000
     atom    4 type  1   force =    -0.00000000    0.00000000   -0.00000000

     Total force =     0.000000     Total SCF correction =     0.000000


     Computing stress (Cartesian axis) and pressure

          total   stress  (Ry/bohr**3)                   (kbar)     P=   -0.60
  -0.00006869   0.00000000   0.00000000        -10.10      0.00      0.00
   0.00000000  -0.00006869  -0.00000000          0.00    -10.10     -0.00
   0.00000000  -0.00000000   0.00012521          0.00     -0.00     18.42

     kinetic stress (kbar)  10648.19     -0.00      0.00
                               -0.00  10648.19     -0.00
                                0.00      0.00  12341.96

     local   stress (kbar) -17829.64      0.01      0.00
                                0.01 -17829.63     -0.00
                                0.00     -0.00  24801.28

     nonloc. stress (kbar)   -459.60      0.00      0.00
                                0.00   -459.60      0.00
                               -0.00      0.00   -465.43

     hartree stress (kbar)   7154.82     -0.00      0.00
                               -0.00   7154.82      0.00
                                0.00      0.00  -6069.14

     exc-cor stress (kbar)  -2735.11      0.00      0.00
                                0.00  -2735.11     -0.00
                                0.00     -0.00  -3012.78

     corecor stress (kbar)      0.00      0.00      0.00
                                0.00      0.00      0.00
                                0.00      0.00      0.00

     ewald   stress (kbar)   3206.47     -0.02     -0.00
                               -0.02   3206.44      0.00
                               -0.00      0.00 -27646.49

     hubbard stress (kbar)      0.00      0.00      0.00
                                0.00      0.00      0.00
                                0.00      0.00      0.00

     london  stress (kbar)      0.00      0.00      0.00
                                0.00      0.00      0.00
                                0.00      0.00      0.00

     DFT-D3  stress (kbar)      0.00      0.00      0.00
                                0.00      0.00      0.00
                                0.00      0.00      0.00

     XDM     stress (kbar)      0.00      0.00      0.00
                                0.00      0.00      0.00
                                0.00      0.00      0.00

     dft-nl  stress (kbar)      4.79     -0.00     -0.00
                               -0.00      4.79      0.00
                               -0.00      0.00     69.02

     TS-vdW  stress (kbar)      0.00      0.00      0.00
                                0.00      0.00      0.00
                                0.00      0.00      0.00



     number of scf cycles    =   4
     number of bfgs steps    =   3

     enthalpy old            =     -45.9901150714 Ry
     enthalpy new            =     -45.9908146001 Ry

     CASE: enthalpy_new < enthalpy_old

     new trust radius        =       0.0783587817 bohr
     new conv_thr            =            1.0E-11 Ry

     new unit-cell volume =    243.11374 a.u.^3 (    36.02574 Ang^3 )
     density =      2.21450 g/cm^3

CELL_PARAMETERS (alat=  4.66006464)
   1.001418600   0.000000000  -0.000000000
  -0.500709300   0.867253948   0.000000000
  -0.000000000  -0.000000000   2.766124594

ATOMIC_POSITIONS (crystal)
C       -0.000000000   1.000000000   0.750000000
C        0.666667000   0.333333000   0.750000000
C       -0.000000000   1.000000000   0.250000000
C        0.333333000   0.666667000   0.250000000



     Writing output data file graphite.save/
     NEW-OLD atomic charge density approx. for the potential


     -----------------------------------------------
[...]

     number of k points=     6  Marzari-Vanderbilt smearing, width (Ry)=  0.0200
                       cart. coord. in units 2pi/alat
        k(    1) = (   0.1248268   0.2162063   0.0900355), wk =   0.2500000
        k(    2) = (   0.1248268   0.5044815   0.0900355), wk =   0.5000000
        k(    3) = (   0.1248268  -0.3603439   0.0900355), wk =   0.5000000
        k(    4) = (   0.1248268  -0.0720688   0.0900355), wk =   0.2500000
        k(    5) = (   0.3744804   0.6486190   0.0900355), wk =   0.2500000
        k(    6) = (   0.3744804  -0.2162063   0.0900355), wk =   0.2500000

                       cryst. coord.
        k(    1) = (   0.1250000   0.1250000   0.2500000), wk =   0.2500000
        k(    2) = (   0.1250000   0.3750000   0.2500000), wk =   0.5000000
        k(    3) = (   0.1250000  -0.3750000   0.2500000), wk =   0.5000000
        k(    4) = (   0.1250000  -0.1250000   0.2500000), wk =   0.2500000
        k(    5) = (   0.3750000   0.3750000   0.2500000), wk =   0.2500000
        k(    6) = (   0.3750000  -0.3750000   0.2500000), wk =   0.2500000

     Dense  grid:    15387 G-vectors     FFT dimensions: (  24,  24,  64)

     Smooth grid:     5391 G-vectors     FFT dimensions: (  18,  18,  48)

     Dynamical RAM for                 wfc:       0.06 MB

     Dynamical RAM for     wfc (w. buffer):       0.43 MB

     Dynamical RAM for           str. fact:       0.12 MB

     Dynamical RAM for           local pot:       0.05 MB

     Dynamical RAM for          nlocal pot:       0.17 MB

     Dynamical RAM for                qrad:       0.53 MB

     Dynamical RAM for          rho,v,vnew:       0.77 MB

     Dynamical RAM for               rhoin:       0.26 MB

     Dynamical RAM for            rho*nmix:       1.88 MB

     Dynamical RAM for           G-vectors:       0.46 MB

     Dynamical RAM for          h,s,v(r/c):       0.11 MB

     Dynamical RAM for          <psi|beta>:       0.01 MB

     Dynamical RAM for                 psi:       0.25 MB

     Dynamical RAM for                hpsi:       0.25 MB

     Dynamical RAM for                spsi:       0.25 MB

     Dynamical RAM for      wfcinit/wfcrot:       0.17 MB

     Dynamical RAM for           addusdens:       5.52 MB

     Dynamical RAM for          addusforce:       6.28 MB

     Dynamical RAM for         addusstress:       5.87 MB

     Estimated static dynamical RAM per process >       5.61 MB

     Estimated max dynamical RAM per process >      11.89 MB

     Estimated total dynamical RAM >      23.78 MB

     Initial potential from superposition of free atoms

     starting charge   15.99979, renormalised to   16.00000


     -----------------------------------------------
     Non-local corr. energy    =       0.11842791 Ry
     -----------------------------------------------

     Starting wfcs are   16 randomized atomic wfcs

     total cpu time spent up to now is       10.0 secs

     Self-consistent Calculation

     iteration #  1     ecut=    30.00 Ry     beta= 0.30
     Davidson diagonalization with overlap
     ethr =  1.00E-06,  avg # of iterations = 10.5


     -----------------------------------------------
     Non-local corr. energy    =       0.13084946 Ry
     -----------------------------------------------


     total cpu time spent up to now is       10.2 secs

     total energy              =     -46.03530815 Ry
     Harris-Foulkes estimate   =     -46.17553832 Ry
     estimated scf accuracy    <       0.45198076 Ry

     iteration #  2     ecut=    30.00 Ry     beta= 0.30
     Davidson diagonalization with overlap
     ethr =  2.82E-03,  avg # of iterations =  1.0


     -----------------------------------------------
     Non-local corr. energy    =       0.14925265 Ry
     -----------------------------------------------


     total cpu time spent up to now is       10.3 secs

     total energy              =     -45.96508121 Ry
     Harris-Foulkes estimate   =     -46.04734070 Ry
     estimated scf accuracy    <       0.15363832 Ry

     iteration #  3     ecut=    30.00 Ry     beta= 0.30
     Davidson diagonalization with overlap
     ethr =  9.60E-04,  avg # of iterations =  3.0


     -----------------------------------------------
     Non-local corr. energy    =       0.14528848 Ry
     -----------------------------------------------


     total cpu time spent up to now is       10.4 secs

     total energy              =     -45.99155943 Ry
     Harris-Foulkes estimate   =     -45.99148458 Ry
     estimated scf accuracy    <       0.00362485 Ry

     iteration #  4     ecut=    30.00 Ry     beta= 0.30
     Davidson diagonalization with overlap
     ethr =  2.27E-05,  avg # of iterations =  2.5


     -----------------------------------------------
     Non-local corr. energy    =       0.14760733 Ry
     -----------------------------------------------


     total cpu time spent up to now is       10.5 secs

     total energy              =     -45.99133675 Ry
     Harris-Foulkes estimate   =     -45.99285017 Ry
     estimated scf accuracy    <       0.00249175 Ry

     iteration #  5     ecut=    30.00 Ry     beta= 0.30
     Davidson diagonalization with overlap
     ethr =  1.56E-05,  avg # of iterations =  2.2


     -----------------------------------------------
     Non-local corr. energy    =       0.14772869 Ry
     -----------------------------------------------


     total cpu time spent up to now is       10.6 secs

     total energy              =     -45.99172490 Ry
     Harris-Foulkes estimate   =     -45.99172291 Ry
     estimated scf accuracy    <       0.00001162 Ry

     iteration #  6     ecut=    30.00 Ry     beta= 0.30
     Davidson diagonalization with overlap
     ethr =  7.27E-08,  avg # of iterations =  3.2


     -----------------------------------------------
     Non-local corr. energy    =       0.14781260 Ry
     -----------------------------------------------


     total cpu time spent up to now is       10.7 secs

     total energy              =     -45.99172970 Ry
     Harris-Foulkes estimate   =     -45.99172897 Ry
     estimated scf accuracy    <       0.00000191 Ry

     iteration #  7     ecut=    30.00 Ry     beta= 0.30
     Davidson diagonalization with overlap
     ethr =  1.19E-08,  avg # of iterations =  2.0


     -----------------------------------------------
     Non-local corr. energy    =       0.14783233 Ry
     -----------------------------------------------


     total cpu time spent up to now is       10.8 secs

     total energy              =     -45.99173065 Ry
     Harris-Foulkes estimate   =     -45.99173010 Ry
     estimated scf accuracy    <       0.00000011 Ry

     iteration #  8     ecut=    30.00 Ry     beta= 0.30
     Davidson diagonalization with overlap
     ethr =  7.00E-10,  avg # of iterations =  2.0


     -----------------------------------------------
     Non-local corr. energy    =       0.14781166 Ry
     -----------------------------------------------


     total cpu time spent up to now is       10.9 secs

     total energy              =     -45.99173084 Ry
     Harris-Foulkes estimate   =     -45.99173069 Ry
     estimated scf accuracy    <       0.00000014 Ry

     iteration #  9     ecut=    30.00 Ry     beta= 0.30
     Davidson diagonalization with overlap
     ethr =  7.00E-10,  avg # of iterations =  2.0


     -----------------------------------------------
     Non-local corr. energy    =       0.14781497 Ry
     -----------------------------------------------


     total cpu time spent up to now is       11.0 secs

     total energy              =     -45.99173097 Ry
     Harris-Foulkes estimate   =     -45.99173087 Ry
     estimated scf accuracy    <          4.3E-09 Ry

     iteration # 10     ecut=    30.00 Ry     beta= 0.30
     Davidson diagonalization with overlap
     ethr =  2.68E-11,  avg # of iterations =  2.0


     -----------------------------------------------
     Non-local corr. energy    =       0.14781395 Ry
     -----------------------------------------------


     total cpu time spent up to now is       11.1 secs

     total energy              =     -45.99173102 Ry
     Harris-Foulkes estimate   =     -45.99173097 Ry
     estimated scf accuracy    <          2.8E-10 Ry

     iteration # 11     ecut=    30.00 Ry     beta= 0.30
     Davidson diagonalization with overlap
     ethr =  1.76E-12,  avg # of iterations =  2.0


     -----------------------------------------------
     Non-local corr. energy    =       0.14781417 Ry
     -----------------------------------------------


     total cpu time spent up to now is       11.2 secs

     total energy              =     -45.99173104 Ry
     Harris-Foulkes estimate   =     -45.99173102 Ry
     estimated scf accuracy    <          5.4E-11 Ry

     iteration # 12     ecut=    30.00 Ry     beta= 0.30
     Davidson diagonalization with overlap
     ethr =  3.36E-13,  avg # of iterations =  2.0


     -----------------------------------------------
     Non-local corr. energy    =       0.14781425 Ry
     -----------------------------------------------


     total cpu time spent up to now is       11.3 secs

     End of self-consistent calculation

          k = 0.1248 0.2162 0.0900 (   673 PWs)   bands (ev):

   -11.7438 -11.5722  -0.1506   0.2760   0.3016   1.0741   1.3795   1.3971
    12.5119  14.6506  14.8992  15.8476

     occupation numbers 
     1.0000   1.0000   1.0000   1.0000   1.0000   1.0000   1.0000   1.0000
     0.0000   0.0000   0.0000   0.0000

          k = 0.1248 0.5045 0.0900 (   681 PWs)   bands (ev):

    -8.2866  -8.1608  -5.3813  -5.2881  -0.8527  -0.8064   3.7500   4.5354
     8.6654   9.1887  15.5474  15.8207

     occupation numbers 
     1.0000   1.0000   1.0000   1.0000   1.0000   1.0000   1.0000   1.0000
     0.0000   0.0000   0.0000   0.0000

          k = 0.1248-0.3603 0.0900 (   681 PWs)   bands (ev):

   -10.3179 -10.1633  -2.4552  -2.3913  -0.0965  -0.0583   1.5425   2.6570
    11.6082  12.0375  14.2539  15.9078

     occupation numbers 
     1.0000   1.0000   1.0000   1.0000   1.0000   1.0000   1.0000   1.0000
     0.0000   0.0000   0.0000   0.0000

          k = 0.1248-0.0721 0.0900 (   660 PWs)   bands (ev):

   -12.4691 -12.2889  -1.0281   0.2407   2.0375   2.0648   2.7049   2.7246
    11.6269  15.0669  15.1752  15.6083

     occupation numbers 
     1.0000   1.0000   1.0000   1.0000   1.0000   1.0000   1.0000   1.0000
     0.0000   0.0000   0.0000   0.0000

          k = 0.3745 0.6486 0.0900 (   680 PWs)   bands (ev):

    -6.7409  -6.6795  -5.7866  -5.7633  -3.0495  -2.9929   5.4112   5.8477
     7.6248   7.7137  17.3400  17.4431

     occupation numbers 
     1.0000   1.0000   1.0000   1.0000   1.0000   1.0000   1.0105   0.9895
     0.0000   0.0000   0.0000   0.0000

          k = 0.3745-0.2162 0.0900 (   677 PWs)   bands (ev):

    -9.6202  -9.4743  -4.1029  -4.0147   0.4677   0.4985   2.3173   3.3386
    10.1372  10.7734  14.2454  14.4447

     occupation numbers 
     1.0000   1.0000   1.0000   1.0000   1.0000   1.0000   1.0000   1.0000
     0.0000   0.0000   0.0000   0.0000

     the Fermi energy is     6.0910 ev

!    total energy              =     -45.99173107 Ry
     Harris-Foulkes estimate   =     -45.99173104 Ry
     estimated scf accuracy    <          6.1E-13 Ry

     The total energy is the sum of the following terms:

     one-electron contribution =     -12.77273601 Ry
     hartree contribution      =      14.24329529 Ry
     xc contribution           =     -14.50832202 Ry
     ewald contribution        =     -32.95447293 Ry
     smearing contrib. (-TS)   =       0.00050461 Ry

     convergence has been achieved in  12 iterations

     Forces acting on atoms (cartesian axes, Ry/au):

     atom    1 type  1   force =     0.00000000    0.00000000    0.00000000
     atom    2 type  1   force =     0.00000000    0.00000000    0.00000000
     atom    3 type  1   force =     0.00000000    0.00000000    0.00000000
     atom    4 type  1   force =    -0.00000000   -0.00000000   -0.00000000
     The non-local contrib.  to forces
     atom    1 type  1   force =     0.00000000   -0.00000000   -0.00000000
     atom    2 type  1   force =     0.00000000    0.00000000    0.00000000
     atom    3 type  1   force =     0.00000000    0.00000000    0.00000000
     atom    4 type  1   force =    -0.00000000    0.00000000    0.00000000
     The ionic contribution  to forces
     atom    1 type  1   force =     0.00000850   -0.00000491   -0.00000000
     atom    2 type  1   force =    -0.00000852    0.00000492   -0.00000000
     atom    3 type  1   force =    -0.00000850    0.00000491    0.00000000
     atom    4 type  1   force =     0.00000852   -0.00000492    0.00000000
     The local contribution  to forces
     atom    1 type  1   force =     0.00000000    0.00000000   -0.00000000
     atom    2 type  1   force =    -0.00000834    0.00000481   -0.00000000
     atom    3 type  1   force =     0.00000000   -0.00000000    0.00000000
     atom    4 type  1   force =     0.00000834   -0.00000481    0.00000000
     The core correction contribution to forces
     atom    1 type  1   force =     0.00000000    0.00000000    0.00000000
     atom    2 type  1   force =     0.00000000    0.00000000    0.00000000
     atom    3 type  1   force =     0.00000000    0.00000000    0.00000000
     atom    4 type  1   force =     0.00000000    0.00000000    0.00000000
     The Hubbard contrib.    to forces
     atom    1 type  1   force =     0.00000000    0.00000000    0.00000000
     atom    2 type  1   force =     0.00000000    0.00000000    0.00000000
     atom    3 type  1   force =     0.00000000    0.00000000    0.00000000
     atom    4 type  1   force =     0.00000000    0.00000000    0.00000000
     The SCF correction term to forces
     atom    1 type  1   force =    -0.00000000    0.00000000    0.00000000
     atom    2 type  1   force =     0.00000000   -0.00000000   -0.00000000
     atom    3 type  1   force =     0.00000000   -0.00000000   -0.00000000
     atom    4 type  1   force =    -0.00000000    0.00000000   -0.00000000

     Total force =     0.000000     Total SCF correction =     0.000000


     Computing stress (Cartesian axis) and pressure

          total   stress  (Ry/bohr**3)                   (kbar)     P=    2.85
   0.00000743  -0.00000000  -0.00000000          1.09     -0.00     -0.00
  -0.00000000   0.00000743   0.00000000         -0.00      1.09      0.00
  -0.00000000   0.00000000   0.00004325         -0.00      0.00      6.36

     kinetic stress (kbar)  10368.46     -0.00      0.00
                               -0.00  10368.46     -0.00
                                0.00      0.00  11999.03

     local   stress (kbar) -18724.79      0.01     -0.00
                                0.01 -18724.78      0.00
                               -0.00      0.00  25529.31

     nonloc. stress (kbar)   -448.61      0.00      0.00
                                0.00   -448.61      0.00
                                0.00      0.00   -451.39

     hartree stress (kbar)   7530.76      0.00     -0.00
                                0.00   7530.76     -0.00
                               -0.00     -0.00  -6475.31

     exc-cor stress (kbar)  -2661.81      0.00     -0.00
                                0.00  -2661.81      0.00
                               -0.00      0.00  -2933.63

     corecor stress (kbar)      0.00      0.00      0.00
                                0.00      0.00      0.00
                                0.00      0.00      0.00

     ewald   stress (kbar)   3932.61     -0.02     -0.00
                               -0.02   3932.59     -0.00
                               -0.00     -0.00 -27730.95

     hubbard stress (kbar)      0.00      0.00      0.00
                                0.00      0.00      0.00
                                0.00      0.00      0.00

     london  stress (kbar)      0.00      0.00      0.00
                                0.00      0.00      0.00
                                0.00      0.00      0.00

     DFT-D3  stress (kbar)      0.00      0.00      0.00
                                0.00      0.00      0.00
                                0.00      0.00      0.00

     XDM     stress (kbar)      0.00      0.00      0.00
                                0.00      0.00      0.00
                                0.00      0.00      0.00

     dft-nl  stress (kbar)      4.48     -0.00      0.00
                               -0.00      4.48      0.00
                                0.00      0.00     69.31

     TS-vdW  stress (kbar)      0.00      0.00      0.00
                                0.00      0.00      0.00
                                0.00      0.00      0.00



     Writing output data file graphite.save/
 
     init_run     :      0.34s CPU      0.35s WALL (       2 calls)
     electrons    :      8.54s CPU      8.65s WALL (       7 calls)
     update_pot   :      0.70s CPU      0.69s WALL (       5 calls)
     forces       :      0.24s CPU      0.25s WALL (       7 calls)
     stress       :      1.33s CPU      1.33s WALL (       7 calls)

     Called by init_run:
     wfcinit      :      0.04s CPU      0.04s WALL (       2 calls)
     wfcinit:atom :      0.00s CPU      0.00s WALL (      12 calls)
     wfcinit:wfcr :      0.04s CPU      0.04s WALL (      12 calls)
     potinit      :      0.14s CPU      0.14s WALL (       2 calls)
     hinit0       :      0.10s CPU      0.11s WALL (       2 calls)

     Called by electrons:
     c_bands      :      3.50s CPU      3.59s WALL (      77 calls)
     sum_band     :      0.92s CPU      0.95s WALL (      77 calls)
     v_of_rho     :      4.08s CPU      4.07s WALL (      84 calls)
     v_h          :      0.04s CPU      0.03s WALL (      84 calls)
     v_xc         :      4.04s CPU      4.04s WALL (      84 calls)
     newd         :      0.27s CPU      0.27s WALL (      84 calls)
     mix_rho      :      0.08s CPU      0.07s WALL (      77 calls)

     Called by c_bands:
     init_us_2    :      0.12s CPU      0.08s WALL (    1020 calls)
     cegterg      :      3.27s CPU      3.39s WALL (     462 calls)

     Called by sum_band:
     sum_band:bec :      0.00s CPU      0.00s WALL (     462 calls)
     addusdens    :      0.28s CPU      0.28s WALL (      77 calls)

     Called by *egterg:
     h_psi        :      2.62s CPU      2.74s WALL (    1677 calls)
     s_psi        :      0.05s CPU      0.05s WALL (    1677 calls)
     g_psi        :      0.02s CPU      0.02s WALL (    1203 calls)
     cdiaghg      :      0.41s CPU      0.39s WALL (    1635 calls)
     cegterg:over :      0.06s CPU      0.08s WALL (    1203 calls)
     cegterg:upda :      0.04s CPU      0.05s WALL (    1203 calls)
     cegterg:last :      0.05s CPU      0.02s WALL (     484 calls)

     Called by h_psi:
     h_psi:pot    :      2.62s CPU      2.73s WALL (    1677 calls)
     h_psi:calbec :      0.07s CPU      0.06s WALL (    1677 calls)
     vloc_psi     :      2.48s CPU      2.61s WALL (    1677 calls)
     add_vuspsi   :      0.07s CPU      0.05s WALL (    1677 calls)

     General routines
     calbec       :      0.08s CPU      0.09s WALL (    2349 calls)
     fft          :      1.69s CPU      1.71s WALL (    5647 calls)
     ffts         :      0.02s CPU      0.02s WALL (     161 calls)
     fftw         :      2.74s CPU      2.81s WALL (   35882 calls)
     interpolate  :      0.03s CPU      0.04s WALL (      84 calls)
 
     Parallel routines
     fft_scatt_xy :      0.56s CPU      0.61s WALL (   41690 calls)
     fft_scatt_yz :      0.74s CPU      0.78s WALL (   41690 calls)
 
     PWSCF        :     11.37s CPU     11.53s WALL

 
   This run was terminated on:  18:38:36   3Sep2019            

=------------------------------------------------------------------------------=
   JOB DONE.
=------------------------------------------------------------------------------=
