
     Program PWSCF v.6.4.1 starts on  3Sep2019 at 18:43:14 

     This program is part of the open-source Quantum ESPRESSO suite
     for quantum simulation of materials; please cite
         "P. Giannozzi et al., J. Phys.:Condens. Matter 21 395502 (2009);
         "P. Giannozzi et al., J. Phys.:Condens. Matter 29 465901 (2017);
          URL http://www.quantum-espresso.org", 
     in publications or presentations arising from this work. More details at
     http://www.quantum-espresso.org/quote

     Parallel version (MPI), running on     2 processors

     MPI processes distributed on     1 nodes
     R & G space division:  proc/nbgrp/npool/nimage =       2
     Waiting for input...
     Reading input from standard input

     Current dimensions of program PWSCF are:
     Max number of different atomic species (ntypx) = 10
     Max number of k-points (npk) =  40000
     Max angular momentum in pseudopotentials (lmaxx) =  3

     IMPORTANT: XC functional enforced from input :
     Exchange-correlation      = PZ ( 1  1  0  0 0 0)
     Any further DFT definition will be discarded
     Please, verify this is what you really want

               file C.pbe-rrkjus.UPF: wavefunction(s)  2S 2P renormalized

     Subspace diagonalization in iterative solution of the eigenvalue problem:
     a serial algorithm will be used

 
     Parallelization info
     --------------------
     sticks:   dense  smooth     PW     G-vecs:    dense   smooth      PW
     Min         180      93     30                 7166     2525     520
     Max         181      94     31                 7173     2528     525
     Sum         361     187     61                14339     5053    1045
 


     bravais-lattice index     =            4
     lattice parameter (alat)  =       4.6601  a.u.
     unit-cell volume          =     227.8448 (a.u.)^3
     number of atoms/cell      =            4
     number of atomic types    =            1
     number of electrons       =        16.00
     number of Kohn-Sham states=           12
     kinetic-energy cutoff     =      30.0000  Ry
     charge density cutoff     =     240.0000  Ry
     convergence threshold     =      1.0E-09
     mixing beta               =       0.3000
     number of iterations used =            8  plain     mixing
     Exchange-correlation      = PZ ( 1  1  0  0 0 0)
     nstep                     =           50


     celldm(1)=   4.660065  celldm(2)=   0.000000  celldm(3)=   2.599757
     celldm(4)=   0.000000  celldm(5)=   0.000000  celldm(6)=   0.000000

     crystal axes: (cart. coord. in units of alat)
               a(1) = (   1.000000   0.000000   0.000000 )  
               a(2) = (  -0.500000   0.866025   0.000000 )  
               a(3) = (   0.000000   0.000000   2.599757 )  

     reciprocal axes: (cart. coord. in units 2 pi/alat)
               b(1) = (  1.000000  0.577350  0.000000 )  
               b(2) = (  0.000000  1.154701  0.000000 )  
               b(3) = (  0.000000  0.000000  0.384651 )  


     PseudoPot. # 1 for C  read from file:
     ../../../pseudo/C.pbe-rrkjus.UPF
     MD5 check sum: 00fb224312de0c5b6853bd333518df6f
     Pseudo is Ultrasoft, Zval =  4.0
     Generated by new atomic code, or converted to UPF format
     Using radial grid of  627 points,  4 beta functions with: 
                l(1) =   0
                l(2) =   0
                l(3) =   1
                l(4) =   1
     Q(r) pseudized with 0 coefficients 


     atomic species   valence    mass     pseudopotential
        C              4.00    12.01100     C ( 1.00)

     24 Sym. Ops., with inversion, found (12 have fractional translation)


                                    s                        frac. trans.

      isym =  1     identity                                     

 cryst.   s( 1) = (     1          0          0      )
                  (     0          1          0      )
                  (     0          0          1      )

 cart.    s( 1) = (  1.0000000  0.0000000  0.0000000 )
                  (  0.0000000  1.0000000  0.0000000 )
                  (  0.0000000  0.0000000  1.0000000 )


      isym =  2     180 deg rotation - cart. axis [0,0,1]        

 cryst.   s( 2) = (    -1          0          0      )    f =( -0.0000000 )
                  (     0         -1          0      )       ( -0.0000000 )
                  (     0          0          1      )       (  0.5000000 )

 cart.    s( 2) = ( -1.0000000  0.0000000  0.0000000 )    f =(  0.0000000 )
                  (  0.0000000 -1.0000000  0.0000000 )       ( -0.0000000 )
                  (  0.0000000  0.0000000  1.0000000 )       (  1.2998783 )


      isym =  3     180 deg rotation - cart. axis [0,1,0]        

 cryst.   s( 3) = (    -1          0          0      )    f =( -0.0000000 )
                  (     1          1          0      )       (  0.0000000 )
                  (     0          0         -1      )       (  0.5000000 )

 cart.    s( 3) = ( -1.0000000  0.0000000  0.0000000 )    f =( -0.0000000 )
                  (  0.0000000  1.0000000  0.0000000 )       (  0.0000000 )
                  (  0.0000000  0.0000000 -1.0000000 )       (  1.2998783 )


      isym =  4     180 deg rotation - cart. axis [1,0,0]        

 cryst.   s( 4) = (     1          0          0      )
                  (    -1         -1          0      )
                  (     0          0         -1      )

 cart.    s( 4) = (  1.0000000  0.0000000  0.0000000 )
                  (  0.0000000 -1.0000000  0.0000000 )
                  (  0.0000000  0.0000000 -1.0000000 )


      isym =  5      60 deg rotation - cryst. axis [0,0,1]       

 cryst.   s( 5) = (     1          1          0      )    f =(  0.0000000 )
                  (    -1          0          0      )       (  0.0000000 )
                  (     0          0          1      )       (  0.5000000 )

 cart.    s( 5) = (  0.5000000 -0.8660254  0.0000000 )    f =(  0.0000000 )
                  (  0.8660254  0.5000000  0.0000000 )       (  0.0000000 )
                  (  0.0000000  0.0000000  1.0000000 )       (  1.2998783 )


      isym =  6      60 deg rotation - cryst. axis [0,0,-1]      

 cryst.   s( 6) = (     0         -1          0      )    f =(  0.0000000 )
                  (     1          1          0      )       ( -0.0000000 )
                  (     0          0          1      )       (  0.5000000 )

 cart.    s( 6) = (  0.5000000  0.8660254  0.0000000 )    f =(  0.0000000 )
                  ( -0.8660254  0.5000000  0.0000000 )       ( -0.0000000 )
                  (  0.0000000  0.0000000  1.0000000 )       (  1.2998783 )


      isym =  7     120 deg rotation - cryst. axis [0,0,1]       

 cryst.   s( 7) = (     0          1          0      )
                  (    -1         -1          0      )
                  (     0          0          1      )

 cart.    s( 7) = ( -0.5000000 -0.8660254  0.0000000 )
                  (  0.8660254 -0.5000000  0.0000000 )
                  (  0.0000000  0.0000000  1.0000000 )


      isym =  8     120 deg rotation - cryst. axis [0,0,-1]      

 cryst.   s( 8) = (    -1         -1          0      )
                  (     1          0          0      )
                  (     0          0          1      )

 cart.    s( 8) = ( -0.5000000  0.8660254  0.0000000 )
                  ( -0.8660254 -0.5000000  0.0000000 )
                  (  0.0000000  0.0000000  1.0000000 )


      isym =  9     180 deg rotation - cryst. axis [1,-1,0]      

 cryst.   s( 9) = (     0         -1          0      )    f =( -0.0000000 )
                  (    -1          0          0      )       ( -0.0000000 )
                  (     0          0         -1      )       (  0.5000000 )

 cart.    s( 9) = (  0.5000000 -0.8660254  0.0000000 )    f =( -0.0000000 )
                  ( -0.8660254 -0.5000000  0.0000000 )       ( -0.0000000 )
                  (  0.0000000  0.0000000 -1.0000000 )       (  1.2998783 )


      isym = 10     180 deg rotation - cryst. axis [2,1,0]       

 cryst.   s(10) = (     1          1          0      )    f =(  0.0000000 )
                  (     0         -1          0      )       (  0.0000000 )
                  (     0          0         -1      )       (  0.5000000 )

 cart.    s(10) = (  0.5000000  0.8660254  0.0000000 )    f =(  0.0000000 )
                  (  0.8660254 -0.5000000  0.0000000 )       (  0.0000000 )
                  (  0.0000000  0.0000000 -1.0000000 )       (  1.2998783 )


      isym = 11     180 deg rotation - cryst. axis [0,1,0]       

 cryst.   s(11) = (    -1         -1          0      )
                  (     0          1          0      )
                  (     0          0         -1      )

 cart.    s(11) = ( -0.5000000 -0.8660254  0.0000000 )
                  ( -0.8660254  0.5000000  0.0000000 )
                  (  0.0000000  0.0000000 -1.0000000 )


      isym = 12     180 deg rotation - cryst. axis [1,1,0]       

 cryst.   s(12) = (     0          1          0      )
                  (     1          0          0      )
                  (     0          0         -1      )

 cart.    s(12) = ( -0.5000000  0.8660254  0.0000000 )
                  (  0.8660254  0.5000000  0.0000000 )
                  (  0.0000000  0.0000000 -1.0000000 )


      isym = 13     inversion                                    

 cryst.   s(13) = (    -1          0          0      )
                  (     0         -1          0      )
                  (     0          0         -1      )

 cart.    s(13) = ( -1.0000000  0.0000000  0.0000000 )
                  (  0.0000000 -1.0000000  0.0000000 )
                  (  0.0000000  0.0000000 -1.0000000 )


      isym = 14     inv. 180 deg rotation - cart. axis [0,0,1]   

 cryst.   s(14) = (     1          0          0      )    f =(  0.0000000 )
                  (     0          1          0      )       (  0.0000000 )
                  (     0          0         -1      )       (  0.5000000 )

 cart.    s(14) = (  1.0000000  0.0000000  0.0000000 )    f =(  0.0000000 )
                  (  0.0000000  1.0000000  0.0000000 )       (  0.0000000 )
                  (  0.0000000  0.0000000 -1.0000000 )       (  1.2998783 )


      isym = 15     inv. 180 deg rotation - cart. axis [0,1,0]   

 cryst.   s(15) = (     1          0          0      )    f =(  0.0000000 )
                  (    -1         -1          0      )       ( -0.0000000 )
                  (     0          0          1      )       (  0.5000000 )

 cart.    s(15) = (  1.0000000  0.0000000  0.0000000 )    f =(  0.0000000 )
                  (  0.0000000 -1.0000000  0.0000000 )       ( -0.0000000 )
                  (  0.0000000  0.0000000  1.0000000 )       (  1.2998783 )


      isym = 16     inv. 180 deg rotation - cart. axis [1,0,0]   

 cryst.   s(16) = (    -1          0          0      )
                  (     1          1          0      )
                  (     0          0          1      )

 cart.    s(16) = ( -1.0000000  0.0000000  0.0000000 )
                  (  0.0000000  1.0000000  0.0000000 )
                  (  0.0000000  0.0000000  1.0000000 )


      isym = 17     inv.  60 deg rotation - cryst. axis [0,0,1]  

 cryst.   s(17) = (    -1         -1          0      )    f =( -0.0000000 )
                  (     1          0          0      )       ( -0.0000000 )
                  (     0          0         -1      )       (  0.5000000 )

 cart.    s(17) = ( -0.5000000  0.8660254  0.0000000 )    f =(  0.0000000 )
                  ( -0.8660254 -0.5000000  0.0000000 )       ( -0.0000000 )
                  (  0.0000000  0.0000000 -1.0000000 )       (  1.2998783 )


      isym = 18     inv.  60 deg rotation - cryst. axis [0,0,-1] 

 cryst.   s(18) = (     0          1          0      )    f =( -0.0000000 )
                  (    -1         -1          0      )       (  0.0000000 )
                  (     0          0         -1      )       (  0.5000000 )

 cart.    s(18) = ( -0.5000000 -0.8660254  0.0000000 )    f =( -0.0000000 )
                  (  0.8660254 -0.5000000  0.0000000 )       (  0.0000000 )
                  (  0.0000000  0.0000000 -1.0000000 )       (  1.2998783 )


      isym = 19     inv. 120 deg rotation - cryst. axis [0,0,1]  

 cryst.   s(19) = (     0         -1          0      )
                  (     1          1          0      )
                  (     0          0         -1      )

 cart.    s(19) = (  0.5000000  0.8660254  0.0000000 )
                  ( -0.8660254  0.5000000  0.0000000 )
                  (  0.0000000  0.0000000 -1.0000000 )


      isym = 20     inv. 120 deg rotation - cryst. axis [0,0,-1] 

 cryst.   s(20) = (     1          1          0      )
                  (    -1          0          0      )
                  (     0          0         -1      )

 cart.    s(20) = (  0.5000000 -0.8660254  0.0000000 )
                  (  0.8660254  0.5000000  0.0000000 )
                  (  0.0000000  0.0000000 -1.0000000 )


      isym = 21     inv. 180 deg rotation - cryst. axis [1,-1,0] 

 cryst.   s(21) = (     0          1          0      )    f =(  0.0000000 )
                  (     1          0          0      )       (  0.0000000 )
                  (     0          0          1      )       (  0.5000000 )

 cart.    s(21) = ( -0.5000000  0.8660254  0.0000000 )    f =(  0.0000000 )
                  (  0.8660254  0.5000000  0.0000000 )       (  0.0000000 )
                  (  0.0000000  0.0000000  1.0000000 )       (  1.2998783 )


      isym = 22     inv. 180 deg rotation - cryst. axis [2,1,0]  

 cryst.   s(22) = (    -1         -1          0      )    f =( -0.0000000 )
                  (     0          1          0      )       ( -0.0000000 )
                  (     0          0          1      )       (  0.5000000 )

 cart.    s(22) = ( -0.5000000 -0.8660254  0.0000000 )    f =( -0.0000000 )
                  ( -0.8660254  0.5000000  0.0000000 )       ( -0.0000000 )
                  (  0.0000000  0.0000000  1.0000000 )       (  1.2998783 )


      isym = 23     inv. 180 deg rotation - cryst. axis [0,1,0]  

 cryst.   s(23) = (     1          1          0      )
                  (     0         -1          0      )
                  (     0          0          1      )

 cart.    s(23) = (  0.5000000  0.8660254  0.0000000 )
                  (  0.8660254 -0.5000000  0.0000000 )
                  (  0.0000000  0.0000000  1.0000000 )


      isym = 24     inv. 180 deg rotation - cryst. axis [1,1,0]  

 cryst.   s(24) = (     0         -1          0      )
                  (    -1          0          0      )
                  (     0          0          1      )

 cart.    s(24) = (  0.5000000 -0.8660254  0.0000000 )
                  ( -0.8660254 -0.5000000  0.0000000 )
                  (  0.0000000  0.0000000  1.0000000 )


     point group D_6h(6/mmm)
     there are 12 classes
     the character table:

       E     2C6   2C3   C2    3C2'  3C2'' i     2S3   2S6   s_h   3s_d  3s_v 
A_1g   1.00  1.00  1.00  1.00  1.00  1.00  1.00  1.00  1.00  1.00  1.00  1.00
A_2g   1.00  1.00  1.00  1.00 -1.00 -1.00  1.00  1.00  1.00  1.00 -1.00 -1.00
B_1g   1.00 -1.00  1.00 -1.00  1.00 -1.00  1.00 -1.00  1.00 -1.00  1.00 -1.00
B_2g   1.00 -1.00  1.00 -1.00 -1.00  1.00  1.00 -1.00  1.00 -1.00 -1.00  1.00
E_1g   2.00  1.00 -1.00 -2.00  0.00  0.00  2.00  1.00 -1.00 -2.00  0.00  0.00
E_2g   2.00 -1.00 -1.00  2.00  0.00  0.00  2.00 -1.00 -1.00  2.00  0.00  0.00
A_1u   1.00  1.00  1.00  1.00  1.00  1.00 -1.00 -1.00 -1.00 -1.00 -1.00 -1.00
A_2u   1.00  1.00  1.00  1.00 -1.00 -1.00 -1.00 -1.00 -1.00 -1.00  1.00  1.00
B_1u   1.00 -1.00  1.00 -1.00  1.00 -1.00 -1.00  1.00 -1.00  1.00 -1.00  1.00
B_2u   1.00 -1.00  1.00 -1.00 -1.00  1.00 -1.00  1.00 -1.00  1.00  1.00 -1.00
E_1u   2.00  1.00 -1.00 -2.00  0.00  0.00 -2.00 -1.00  1.00  2.00  0.00  0.00
E_2u   2.00 -1.00 -1.00  2.00  0.00  0.00 -2.00  1.00  1.00 -2.00  0.00  0.00

     the symmetry operations in each class and the name of the first element:

     E        1
          identity                                               
     2C6      5    6
           60 deg rotation - cryst. axis [0,0,1]                 
     2C3      7    8
          120 deg rotation - cryst. axis [0,0,1]                 
     C2       2
          180 deg rotation - cart. axis [0,0,1]                  
     3C2'     4   12   11
          180 deg rotation - cart. axis [1,0,0]                  
     3C2''    3    9   10
          180 deg rotation - cart. axis [0,1,0]                  
     i       13
          inversion                                              
     2S3     17   18
          inv.  60 deg rotation - cryst. axis [0,0,1]            
     2S6     19   20
          inv. 120 deg rotation - cryst. axis [0,0,1]            
     s_h     14
          inv. 180 deg rotation - cart. axis [0,0,1]             
     3s_d    16   24   23
          inv. 180 deg rotation - cart. axis [1,0,0]             
     3s_v    15   21   22
          inv. 180 deg rotation - cart. axis [0,1,0]             

   Cartesian axes

     site n.     atom                  positions (alat units)
         1           C   tau(   1) = (  -0.5000000   0.8660254   1.9498175  )
         2           C   tau(   2) = (   0.5000005   0.2886748   1.9498175  )
         3           C   tau(   3) = (  -0.5000000   0.8660254   0.6499392  )
         4           C   tau(   4) = (  -0.0000005   0.5773506   0.6499392  )

   Crystallographic axes

     site n.     atom                  positions (cryst. coord.)
         1           C   tau(   1) = (  0.0000000  1.0000000  0.7500000  )
         2           C   tau(   2) = (  0.6666670  0.3333330  0.7500000  )
         3           C   tau(   3) = (  0.0000000  1.0000000  0.2500000  )
         4           C   tau(   4) = (  0.3333330  0.6666670  0.2500000  )

     number of k points=     6  Marzari-Vanderbilt smearing, width (Ry)=  0.0200
                       cart. coord. in units 2pi/alat
        k(    1) = (   0.1250000   0.2165064   0.0961628), wk =   0.2500000
        k(    2) = (   0.1250000   0.5051815   0.0961628), wk =   0.5000000
        k(    3) = (   0.1250000  -0.3608439   0.0961628), wk =   0.5000000
        k(    4) = (   0.1250000  -0.0721688   0.0961628), wk =   0.2500000
        k(    5) = (   0.3750000   0.6495191   0.0961628), wk =   0.2500000
        k(    6) = (   0.3750000  -0.2165064   0.0961628), wk =   0.2500000

                       cryst. coord.
        k(    1) = (   0.1250000   0.1250000   0.2500000), wk =   0.2500000
        k(    2) = (   0.1250000   0.3750000   0.2500000), wk =   0.5000000
        k(    3) = (   0.1250000  -0.3750000   0.2500000), wk =   0.5000000
        k(    4) = (   0.1250000  -0.1250000   0.2500000), wk =   0.2500000
        k(    5) = (   0.3750000   0.3750000   0.2500000), wk =   0.2500000
        k(    6) = (   0.3750000  -0.3750000   0.2500000), wk =   0.2500000

     Dense  grid:    14339 G-vectors     FFT dimensions: (  24,  24,  60)

     Smooth grid:     5053 G-vectors     FFT dimensions: (  18,  18,  48)

     Dynamical RAM for                 wfc:       0.06 MB

     Dynamical RAM for     wfc (w. buffer):       0.41 MB

     Dynamical RAM for           str. fact:       0.11 MB

     Dynamical RAM for           local pot:       0.00 MB

     Dynamical RAM for          nlocal pot:       0.15 MB

     Dynamical RAM for                qrad:       0.53 MB

     Dynamical RAM for          rho,v,vnew:       0.72 MB

     Dynamical RAM for               rhoin:       0.24 MB

     Dynamical RAM for            rho*nmix:       1.75 MB

     Dynamical RAM for           G-vectors:       0.43 MB

     Dynamical RAM for          h,s,v(r/c):       0.11 MB

     Dynamical RAM for          <psi|beta>:       0.01 MB

     Dynamical RAM for                 psi:       0.23 MB

     Dynamical RAM for                hpsi:       0.23 MB

     Dynamical RAM for                spsi:       0.23 MB

     Dynamical RAM for      wfcinit/wfcrot:       0.16 MB

     Dynamical RAM for           addusdens:       5.14 MB

     Dynamical RAM for          addusforce:       5.86 MB

     Dynamical RAM for         addusstress:       5.47 MB

     Estimated static dynamical RAM per process >       5.22 MB

     Estimated max dynamical RAM per process >      11.08 MB

     Estimated total dynamical RAM >      22.16 MB

     Initial potential from superposition of free atoms

     starting charge   15.99979, renormalised to   16.00000
     Starting wfcs are   16 randomized atomic wfcs

     total cpu time spent up to now is        0.2 secs

     Self-consistent Calculation

     iteration #  1     ecut=    30.00 Ry     beta= 0.30
     Davidson diagonalization with overlap
     ethr =  1.00E-02,  avg # of iterations =  3.0

     total cpu time spent up to now is        0.3 secs

     total energy              =     -45.48749769 Ry
     Harris-Foulkes estimate   =     -45.60823000 Ry
     estimated scf accuracy    <       0.34833603 Ry

     iteration #  2     ecut=    30.00 Ry     beta= 0.30
     Davidson diagonalization with overlap
     ethr =  2.18E-03,  avg # of iterations =  1.0

     total cpu time spent up to now is        0.4 secs

     total energy              =     -45.43001939 Ry
     Harris-Foulkes estimate   =     -45.49781510 Ry
     estimated scf accuracy    <       0.11516557 Ry

     iteration #  3     ecut=    30.00 Ry     beta= 0.30
     Davidson diagonalization with overlap
     ethr =  7.20E-04,  avg # of iterations =  2.7

     total cpu time spent up to now is        0.5 secs

     total energy              =     -45.44788428 Ry
     Harris-Foulkes estimate   =     -45.44833537 Ry
     estimated scf accuracy    <       0.00204440 Ry

     iteration #  4     ecut=    30.00 Ry     beta= 0.30
     Davidson diagonalization with overlap
     ethr =  1.28E-05,  avg # of iterations =  5.0

     total cpu time spent up to now is        0.6 secs

     total energy              =     -45.44797746 Ry
     Harris-Foulkes estimate   =     -45.44824126 Ry
     estimated scf accuracy    <       0.00043655 Ry

     iteration #  5     ecut=    30.00 Ry     beta= 0.30
     Davidson diagonalization with overlap
     ethr =  2.73E-06,  avg # of iterations =  2.0

     total cpu time spent up to now is        0.6 secs

     total energy              =     -45.44805041 Ry
     Harris-Foulkes estimate   =     -45.44804987 Ry
     estimated scf accuracy    <       0.00000271 Ry

     iteration #  6     ecut=    30.00 Ry     beta= 0.30
     Davidson diagonalization with overlap
     ethr =  1.69E-08,  avg # of iterations =  2.2

     total cpu time spent up to now is        0.7 secs

     total energy              =     -45.44805084 Ry
     Harris-Foulkes estimate   =     -45.44805085 Ry
     estimated scf accuracy    <       0.00000029 Ry

     iteration #  7     ecut=    30.00 Ry     beta= 0.30
     Davidson diagonalization with overlap
     ethr =  1.79E-09,  avg # of iterations =  1.3

     total cpu time spent up to now is        0.8 secs

     total energy              =     -45.44805088 Ry
     Harris-Foulkes estimate   =     -45.44805086 Ry
     estimated scf accuracy    <          9.0E-09 Ry

     iteration #  8     ecut=    30.00 Ry     beta= 0.30
     Davidson diagonalization with overlap
     ethr =  5.63E-11,  avg # of iterations =  2.0

     total cpu time spent up to now is        0.8 secs

     total energy              =     -45.44805089 Ry
     Harris-Foulkes estimate   =     -45.44805088 Ry
     estimated scf accuracy    <          1.0E-09 Ry

     iteration #  9     ecut=    30.00 Ry     beta= 0.30
     Davidson diagonalization with overlap
     ethr =  6.51E-12,  avg # of iterations =  1.0

     total cpu time spent up to now is        0.9 secs

     End of self-consistent calculation

          k = 0.1250 0.2165 0.0962 (   626 PWs)   bands (ev):

   -11.1135 -10.8186   0.2106   1.2373   1.2864   1.9399   2.2963   2.3314
    13.7827  15.4093  15.7982  16.4563

     occupation numbers 
     1.0000   1.0000   1.0000   1.0000   1.0000   1.0000   1.0000   1.0000
     0.0000   0.0000   0.0000   0.0000

          k = 0.1250 0.5052 0.0962 (   635 PWs)   bands (ev):

    -7.5471  -7.3213  -4.6416  -4.4681  -0.0230   0.0675   4.2369   5.3753
     9.2503  10.0232  16.0757  16.5133

     occupation numbers 
     1.0000   1.0000   1.0000   1.0000   1.0000   1.0000   1.0000   1.0000
     0.0000   0.0000   0.0000   0.0000

          k = 0.1250-0.3608 0.0962 (   638 PWs)   bands (ev):

    -9.6513  -9.3824  -1.5958  -1.4742   0.7505   0.8269   1.9419   3.5310
    12.2625  12.9212  15.4453  16.4524

     occupation numbers 
     1.0000   1.0000   1.0000   1.0000   1.0000   1.0000   1.0000   1.0000
     0.0000   0.0000   0.0000   0.0000

          k = 0.1250-0.0722 0.0962 (   616 PWs)   bands (ev):

   -11.8557 -11.5475  -0.6829   1.1007   3.0328   3.0871   3.7137   3.7538
    12.9313  15.6697  15.8133  17.1660

     occupation numbers 
     1.0000   1.0000   1.0000   1.0000   1.0000   1.0000   1.0000   1.0000
     0.0000   0.0000   0.0000   0.0000

          k = 0.3750 0.6495 0.0962 (   638 PWs)   bands (ev):

    -5.8884  -5.7779  -5.0107  -4.9593  -2.3820  -2.2670   5.9652   6.5968
     8.3472   8.5030  17.6979  17.9089

     occupation numbers 
     1.0000   1.0000   1.0000   1.0000   1.0000   1.0000   1.0005   0.9995
     0.0000   0.0000   0.0000   0.0000

          k = 0.3750-0.2165 0.0962 (   632 PWs)   bands (ev):

    -8.9326  -8.6767  -3.3237  -3.1610   1.3792   1.4403   2.7437   4.2090
    10.6978  11.6535  14.7267  15.0830

     occupation numbers 
     1.0000   1.0000   1.0000   1.0000   1.0000   1.0000   1.0000   1.0000
     0.0000   0.0000   0.0000   0.0000

     the Fermi energy is     6.8471 ev

!    total energy              =     -45.44805090 Ry
     Harris-Foulkes estimate   =     -45.44805089 Ry
     estimated scf accuracy    <          5.7E-10 Ry

     The total energy is the sum of the following terms:

     one-electron contribution =      -7.53913743 Ry
     hartree contribution      =      11.83721759 Ry
     xc contribution           =     -13.87054942 Ry
     ewald contribution        =     -35.87599542 Ry
     smearing contrib. (-TS)   =       0.00041377 Ry

     convergence has been achieved in   9 iterations

     Forces acting on atoms (cartesian axes, Ry/au):

     atom    1 type  1   force =     0.00000000    0.00000000    0.00000000
     atom    2 type  1   force =     0.00000000    0.00000000    0.00000000
     atom    3 type  1   force =     0.00000000    0.00000000    0.00000000
     atom    4 type  1   force =     0.00000000    0.00000000    0.00000000
     The non-local contrib.  to forces
     atom    1 type  1   force =    -0.00000000   -0.00000000    0.00000000
     atom    2 type  1   force =     0.00000000    0.00000000    0.00000000
     atom    3 type  1   force =    -0.00000000   -0.00000000    0.00000000
     atom    4 type  1   force =     0.00000000    0.00000000    0.00000000
     The ionic contribution  to forces
     atom    1 type  1   force =     0.00000852   -0.00000492   -0.00000000
     atom    2 type  1   force =    -0.00000856    0.00000494   -0.00000000
     atom    3 type  1   force =    -0.00000852    0.00000492    0.00000000
     atom    4 type  1   force =     0.00000856   -0.00000494    0.00000000
     The local contribution  to forces
     atom    1 type  1   force =    -0.00000000    0.00000000   -0.00000000
     atom    2 type  1   force =    -0.00000788    0.00000455   -0.00000000
     atom    3 type  1   force =     0.00000000   -0.00000000    0.00000000
     atom    4 type  1   force =     0.00000788   -0.00000455    0.00000000
     The core correction contribution to forces
     atom    1 type  1   force =     0.00000000    0.00000000    0.00000000
     atom    2 type  1   force =     0.00000000    0.00000000    0.00000000
     atom    3 type  1   force =     0.00000000    0.00000000    0.00000000
     atom    4 type  1   force =     0.00000000    0.00000000    0.00000000
     The Hubbard contrib.    to forces
     atom    1 type  1   force =     0.00000000    0.00000000    0.00000000
     atom    2 type  1   force =     0.00000000    0.00000000    0.00000000
     atom    3 type  1   force =     0.00000000    0.00000000    0.00000000
     atom    4 type  1   force =     0.00000000    0.00000000    0.00000000
     The SCF correction term to forces
     atom    1 type  1   force =     0.00000000   -0.00000000    0.00000000
     atom    2 type  1   force =    -0.00000000    0.00000000   -0.00000000
     atom    3 type  1   force =    -0.00000000    0.00000000   -0.00000000
     atom    4 type  1   force =     0.00000000   -0.00000000   -0.00000000

     Total force =     0.000000     Total SCF correction =     0.000000


     Computing stress (Cartesian axis) and pressure

          total   stress  (Ry/bohr**3)                   (kbar)     P=   -7.76
  -0.00010039   0.00000000   0.00000000        -14.77      0.00      0.00
   0.00000000  -0.00010039  -0.00000000          0.00    -14.77     -0.00
   0.00000000   0.00000000   0.00004251          0.00      0.00      6.25

     kinetic stress (kbar)  10962.61     -0.00      0.00
                               -0.00  10962.61      0.00
                                0.00      0.00  12646.24

     local   stress (kbar) -16740.96      0.01     -0.00
                                0.01 -16740.95      0.00
                               -0.00      0.00  24045.54

     nonloc. stress (kbar)   -461.58      0.00      0.00
                                0.00   -461.58      0.00
                                0.00      0.00   -454.99

     hartree stress (kbar)   6612.66     -0.00      0.00
                               -0.00   6612.66      0.00
                                0.00      0.00  -5582.77

     exc-cor stress (kbar)  -2753.30      0.00      0.00
                                0.00  -2753.30      0.00
                                0.00      0.00  -2753.30

     corecor stress (kbar)      0.00      0.00      0.00
                                0.00      0.00      0.00
                                0.00      0.00      0.00

     ewald   stress (kbar)   2365.81     -0.03      0.00
                               -0.03   2365.78     -0.00
                                0.00     -0.00 -27894.46

     hubbard stress (kbar)      0.00      0.00      0.00
                                0.00      0.00      0.00
                                0.00      0.00      0.00

     london  stress (kbar)      0.00      0.00      0.00
                                0.00      0.00      0.00
                                0.00      0.00      0.00

     DFT-D3  stress (kbar)      0.00      0.00      0.00
                                0.00      0.00      0.00
                                0.00      0.00      0.00

     XDM     stress (kbar)      0.00      0.00      0.00
                                0.00      0.00      0.00
                                0.00      0.00      0.00

     dft-nl  stress (kbar)      0.00      0.00      0.00
                                0.00      0.00      0.00
                                0.00      0.00      0.00

     TS-vdW  stress (kbar)      0.00      0.00      0.00
                                0.00      0.00      0.00
                                0.00      0.00      0.00



     BFGS Geometry Optimization

     number of scf cycles    =   1
     number of bfgs steps    =   0

     enthalpy new            =     -45.4480509034 Ry

     new trust radius        =       0.0075767212 bohr
     new conv_thr            =       0.0000000010 Ry

     new unit-cell volume =    226.94350 a.u.^3 (    33.62956 Ang^3 )
     density =      2.37229 g/cm^3

CELL_PARAMETERS (alat=  4.66006464)
   0.997490243   0.000000000   0.000000000
  -0.498745121   0.863851890   0.000000000
   0.000000000  -0.000000000   2.602519430

ATOMIC_POSITIONS (crystal)
C        0.000000000   1.000000000   0.750000000
C        0.666667000   0.333333000   0.750000000
C        0.000000000   1.000000000   0.250000000
C        0.333333000   0.666667000   0.250000000



     Writing output data file graphite.save/
     NEW-OLD atomic charge density approx. for the potential
     extrapolated charge   15.93646, renormalised to   16.00000

     total cpu time spent up to now is        1.1 secs

     Self-consistent Calculation

     iteration #  1     ecut=    30.00 Ry     beta= 0.30
     Davidson diagonalization with overlap
     ethr =  1.00E-06,  avg # of iterations =  2.8

     total cpu time spent up to now is        1.1 secs

     total energy              =     -45.44788369 Ry
     Harris-Foulkes estimate   =     -45.47062909 Ry
     estimated scf accuracy    <       0.00015411 Ry

     iteration #  2     ecut=    30.00 Ry     beta= 0.30
     Davidson diagonalization with overlap
     ethr =  9.63E-07,  avg # of iterations =  2.3

     total cpu time spent up to now is        1.2 secs

     total energy              =     -45.44804806 Ry
     Harris-Foulkes estimate   =     -45.44804966 Ry
     estimated scf accuracy    <       0.00000587 Ry

     iteration #  3     ecut=    30.00 Ry     beta= 0.30
     Davidson diagonalization with overlap
     ethr =  3.67E-08,  avg # of iterations =  1.0

     total cpu time spent up to now is        1.3 secs

     total energy              =     -45.44804704 Ry
     Harris-Foulkes estimate   =     -45.44804834 Ry
     estimated scf accuracy    <       0.00000240 Ry

     iteration #  4     ecut=    30.00 Ry     beta= 0.30
     Davidson diagonalization with overlap
     ethr =  1.50E-08,  avg # of iterations =  2.0

     total cpu time spent up to now is        1.3 secs

     total energy              =     -45.44804759 Ry
     Harris-Foulkes estimate   =     -45.44804753 Ry
     estimated scf accuracy    <       0.00000008 Ry

     iteration #  5     ecut=    30.00 Ry     beta= 0.30
     Davidson diagonalization with overlap
     ethr =  5.09E-10,  avg # of iterations =  2.0

     total cpu time spent up to now is        1.4 secs

     total energy              =     -45.44804751 Ry
     Harris-Foulkes estimate   =     -45.44804759 Ry
     estimated scf accuracy    <       0.00000019 Ry

     iteration #  6     ecut=    30.00 Ry     beta= 0.30
     Davidson diagonalization with overlap
     ethr =  5.09E-10,  avg # of iterations =  2.0

     total cpu time spent up to now is        1.4 secs

     total energy              =     -45.44804750 Ry
     Harris-Foulkes estimate   =     -45.44804752 Ry
     estimated scf accuracy    <       0.00000004 Ry

     iteration #  7     ecut=    30.00 Ry     beta= 0.30
     Davidson diagonalization with overlap
     ethr =  2.34E-10,  avg # of iterations =  2.0

     total cpu time spent up to now is        1.5 secs

     End of self-consistent calculation

          k = 0.1253 0.2171 0.0961 (   626 PWs)   bands (ev):

   -11.1218 -10.8302   0.2187   1.2774   1.3255   1.9359   2.3292   2.3635
    13.7906  15.5169  15.9024  16.5557

     occupation numbers 
     1.0000   1.0000   1.0000   1.0000   1.0000   1.0000   1.0000   1.0000
     0.0000   0.0000   0.0000   0.0000

          k = 0.1253 0.5065 0.0961 (   635 PWs)   bands (ev):

    -7.5377  -7.3145  -4.6283  -4.4567  -0.0013   0.0877   4.2694   5.4007
     9.3062  10.0774  16.1999  16.6341

     occupation numbers 
     1.0000   1.0000   1.0000   1.0000   1.0000   1.0000   1.0000   1.0000
     0.0000   0.0000   0.0000   0.0000

          k = 0.1253-0.3618 0.0961 (   638 PWs)   bands (ev):

    -9.6531  -9.3873  -1.5668  -1.4470   0.7755   0.8506   1.9603   3.5386
    12.3445  12.9998  15.4674  16.5706

     occupation numbers 
     1.0000   1.0000   1.0000   1.0000   1.0000   1.0000   1.0000   1.0000
     0.0000   0.0000   0.0000   0.0000

          k = 0.1253-0.0724 0.0961 (   616 PWs)   bands (ev):

   -11.8672 -11.5624  -0.6801   1.0911   3.0774   3.1306   3.7568   3.7961
    12.9331  15.7690  15.9122  17.2719

     occupation numbers 
     1.0000   1.0000   1.0000   1.0000   1.0000   1.0000   1.0000   1.0000
     0.0000   0.0000   0.0000   0.0000

          k = 0.3759 0.6512 0.0961 (   638 PWs)   bands (ev):

    -5.8658  -5.7569  -5.0003  -4.9486  -2.3760  -2.2618   6.0087   6.6354
     8.3986   8.5495  17.7582  17.9745

     occupation numbers 
     1.0000   1.0000   1.0000   1.0000   1.0000   1.0000   1.0005   0.9995
     0.0000   0.0000   0.0000   0.0000

          k = 0.3759-0.2171 0.0961 (   632 PWs)   bands (ev):

    -8.9308  -8.6780  -3.3038  -3.1434   1.4066   1.4665   2.7670   4.2226
    10.7657  11.7177  14.8454  15.1954

     occupation numbers 
     1.0000   1.0000   1.0000   1.0000   1.0000   1.0000   1.0000   1.0000
     0.0000   0.0000   0.0000   0.0000

     the Fermi energy is     6.8857 ev

!    total energy              =     -45.44804750 Ry
     Harris-Foulkes estimate   =     -45.44804750 Ry
     estimated scf accuracy    <          7.6E-11 Ry

     The total energy is the sum of the following terms:

     one-electron contribution =      -7.67435171 Ry
     hartree contribution      =      11.92885858 Ry
     xc contribution           =     -13.89182854 Ry
     ewald contribution        =     -35.81114013 Ry
     smearing contrib. (-TS)   =       0.00041429 Ry

     convergence has been achieved in   7 iterations

     Forces acting on atoms (cartesian axes, Ry/au):

     atom    1 type  1   force =     0.00000000    0.00000000    0.00000000
     atom    2 type  1   force =     0.00000000    0.00000000    0.00000000
     atom    3 type  1   force =     0.00000000    0.00000000    0.00000000
     atom    4 type  1   force =     0.00000000    0.00000000    0.00000000
     The non-local contrib.  to forces
     atom    1 type  1   force =     0.00000000    0.00000000    0.00000000
     atom    2 type  1   force =     0.00000000   -0.00000000   -0.00000000
     atom    3 type  1   force =     0.00000000   -0.00000000   -0.00000000
     atom    4 type  1   force =     0.00000000    0.00000000    0.00000000
     The ionic contribution  to forces
     atom    1 type  1   force =     0.00000856   -0.00000494   -0.00000000
     atom    2 type  1   force =    -0.00000860    0.00000496   -0.00000000
     atom    3 type  1   force =    -0.00000856    0.00000494    0.00000000
     atom    4 type  1   force =     0.00000860   -0.00000496    0.00000000
     The local contribution  to forces
     atom    1 type  1   force =     0.00000000    0.00000000   -0.00000000
     atom    2 type  1   force =    -0.00000785    0.00000453   -0.00000000
     atom    3 type  1   force =    -0.00000000   -0.00000000    0.00000000
     atom    4 type  1   force =     0.00000785   -0.00000453    0.00000000
     The core correction contribution to forces
     atom    1 type  1   force =     0.00000000    0.00000000    0.00000000
     atom    2 type  1   force =     0.00000000    0.00000000    0.00000000
     atom    3 type  1   force =     0.00000000    0.00000000    0.00000000
     atom    4 type  1   force =     0.00000000    0.00000000    0.00000000
     The Hubbard contrib.    to forces
     atom    1 type  1   force =     0.00000000    0.00000000    0.00000000
     atom    2 type  1   force =     0.00000000    0.00000000    0.00000000
     atom    3 type  1   force =     0.00000000    0.00000000    0.00000000
     atom    4 type  1   force =     0.00000000    0.00000000    0.00000000
     The SCF correction term to forces
     atom    1 type  1   force =    -0.00000000    0.00000000   -0.00000000
     atom    2 type  1   force =     0.00000000   -0.00000000   -0.00000000
     atom    3 type  1   force =     0.00000000   -0.00000000   -0.00000000
     atom    4 type  1   force =    -0.00000000    0.00000000   -0.00000000

     Total force =     0.000000     Total SCF correction =     0.000000


     Computing stress (Cartesian axis) and pressure

          total   stress  (Ry/bohr**3)                   (kbar)     P=   13.91
   0.00012241  -0.00000000  -0.00000000         18.01     -0.00     -0.00
  -0.00000000   0.00012241   0.00000000         -0.00     18.01      0.00
   0.00000000  -0.00000000   0.00003882          0.00     -0.00      5.71

     kinetic stress (kbar)  11038.62     -0.00     -0.00
                               -0.00  11038.62     -0.00
                               -0.00     -0.00  12715.43

     local   stress (kbar) -16966.71      0.01     -0.00
                                0.01 -16966.70      0.00
                               -0.00      0.00  24369.63

     nonloc. stress (kbar)   -469.67      0.00     -0.00
                                0.00   -469.67     -0.00
                                0.00      0.00   -461.43

     hartree stress (kbar)   6703.00      0.00      0.00
                                0.00   6703.00     -0.00
                                0.00     -0.00  -5673.70

     exc-cor stress (kbar)  -2768.62      0.00      0.00
                                0.00  -2768.62      0.00
                                0.00      0.00  -2768.62

     corecor stress (kbar)      0.00      0.00      0.00
                                0.00      0.00      0.00
                                0.00      0.00      0.00

     ewald   stress (kbar)   2481.40     -0.03      0.00
                               -0.03   2481.37      0.00
                                0.00      0.00 -28175.59

     hubbard stress (kbar)      0.00      0.00      0.00
                                0.00      0.00      0.00
                                0.00      0.00      0.00

     london  stress (kbar)      0.00      0.00      0.00
                                0.00      0.00      0.00
                                0.00      0.00      0.00

     DFT-D3  stress (kbar)      0.00      0.00      0.00
                                0.00      0.00      0.00
                                0.00      0.00      0.00

     XDM     stress (kbar)      0.00      0.00      0.00
                                0.00      0.00      0.00
                                0.00      0.00      0.00

     dft-nl  stress (kbar)      0.00      0.00      0.00
                                0.00      0.00      0.00
                                0.00      0.00      0.00

     TS-vdW  stress (kbar)      0.00      0.00      0.00
                                0.00      0.00      0.00
                                0.00      0.00      0.00



     number of scf cycles    =   2
     number of bfgs steps    =   1

     enthalpy old            =     -45.4480509034 Ry
     enthalpy new            =     -45.4480475035 Ry

     CASE: enthalpy_new > enthalpy_old

     new trust radius        =       0.0036900879 bohr
     new conv_thr            =       0.0000000010 Ry

     new unit-cell volume =    227.40603 a.u.^3 (    33.69810 Ang^3 )
     density =      2.36746 g/cm^3

CELL_PARAMETERS (alat=  4.66006464)
   0.998778323   0.000000000   0.000000000
  -0.499389161   0.864967400   0.000000000
   0.000000000  -0.000000000   2.601101512

ATOMIC_POSITIONS (crystal)
C        0.000000000   1.000000000   0.750000000
C        0.666667000   0.333333000   0.750000000
C        0.000000000   1.000000000   0.250000000
C        0.333333000   0.666667000   0.250000000



     Writing output data file graphite.save/
     NEW-OLD atomic charge density approx. for the potential
     extrapolated charge   16.03254, renormalised to   16.00000

     total cpu time spent up to now is        1.7 secs

     Self-consistent Calculation

     iteration #  1     ecut=    30.00 Ry     beta= 0.30
     Davidson diagonalization with overlap
     ethr =  1.00E-06,  avg # of iterations =  2.0

     total cpu time spent up to now is        1.7 secs

     total energy              =     -45.44803699 Ry
     Harris-Foulkes estimate   =     -45.43665019 Ry
     estimated scf accuracy    <       0.00004079 Ry

     iteration #  2     ecut=    30.00 Ry     beta= 0.30
     Davidson diagonalization with overlap
     ethr =  2.55E-07,  avg # of iterations =  2.0

     total cpu time spent up to now is        1.8 secs

     total energy              =     -45.44808071 Ry
     Harris-Foulkes estimate   =     -45.44808114 Ry
     estimated scf accuracy    <       0.00000158 Ry

     iteration #  3     ecut=    30.00 Ry     beta= 0.30
     Davidson diagonalization with overlap
     ethr =  9.90E-09,  avg # of iterations =  1.5

     total cpu time spent up to now is        1.8 secs

     total energy              =     -45.44808044 Ry
     Harris-Foulkes estimate   =     -45.44808078 Ry
     estimated scf accuracy    <       0.00000064 Ry

     iteration #  4     ecut=    30.00 Ry     beta= 0.30
     Davidson diagonalization with overlap
     ethr =  4.01E-09,  avg # of iterations =  2.0

     total cpu time spent up to now is        1.9 secs

     total energy              =     -45.44808057 Ry
     Harris-Foulkes estimate   =     -45.44808056 Ry
     estimated scf accuracy    <       0.00000002 Ry

     iteration #  5     ecut=    30.00 Ry     beta= 0.30
     Davidson diagonalization with overlap
     ethr =  9.53E-11,  avg # of iterations =  2.2

     total cpu time spent up to now is        2.0 secs

     total energy              =     -45.44808055 Ry
     Harris-Foulkes estimate   =     -45.44808058 Ry
     estimated scf accuracy    <       0.00000005 Ry

     iteration #  6     ecut=    30.00 Ry     beta= 0.30
     Davidson diagonalization with overlap
     ethr =  9.53E-11,  avg # of iterations =  2.0

     total cpu time spent up to now is        2.0 secs

     total energy              =     -45.44808055 Ry
     Harris-Foulkes estimate   =     -45.44808056 Ry
     estimated scf accuracy    <       0.00000001 Ry

     iteration #  7     ecut=    30.00 Ry     beta= 0.30
     Davidson diagonalization with overlap
     ethr =  6.48E-11,  avg # of iterations =  2.0

     total cpu time spent up to now is        2.1 secs

     total energy              =     -45.44808055 Ry
     Harris-Foulkes estimate   =     -45.44808055 Ry
     estimated scf accuracy    <          1.7E-09 Ry

     iteration #  8     ecut=    30.00 Ry     beta= 0.30
     Davidson diagonalization with overlap
     ethr =  1.05E-11,  avg # of iterations =  2.0

     total cpu time spent up to now is        2.1 secs

     End of self-consistent calculation

          k = 0.1252 0.2168 0.0961 (   626 PWs)   bands (ev):

   -11.1176 -10.8243   0.2146   1.2567   1.3053   1.9379   2.3122   2.3469
    13.7865  15.4615  15.8488  16.5046

     occupation numbers 
     1.0000   1.0000   1.0000   1.0000   1.0000   1.0000   1.0000   1.0000
     0.0000   0.0000   0.0000   0.0000

          k = 0.1252 0.5058 0.0961 (   635 PWs)   bands (ev):

    -7.5426  -7.3181  -4.6353  -4.4627  -0.0126   0.0772   4.2527   5.3876
     9.2774  10.0495  16.1360  16.5720

     occupation numbers 
     1.0000   1.0000   1.0000   1.0000   1.0000   1.0000   1.0000   1.0000
     0.0000   0.0000   0.0000   0.0000

          k = 0.1252-0.3613 0.0961 (   638 PWs)   bands (ev):

    -9.6522  -9.3849  -1.5818  -1.4611   0.7625   0.8383   1.9508   3.5346
    12.3023  12.9593  15.4560  16.5098

     occupation numbers 
     1.0000   1.0000   1.0000   1.0000   1.0000   1.0000   1.0000   1.0000
     0.0000   0.0000   0.0000   0.0000

          k = 0.1252-0.0723 0.0961 (   616 PWs)   bands (ev):

   -11.8614 -11.5548  -0.6816   1.0960   3.0544   3.1081   3.7346   3.7742
    12.9321  15.7179  15.8613  17.2174

     occupation numbers 
     1.0000   1.0000   1.0000   1.0000   1.0000   1.0000   1.0000   1.0000
     0.0000   0.0000   0.0000   0.0000

          k = 0.3755 0.6503 0.0961 (   638 PWs)   bands (ev):

    -5.8775  -5.7678  -5.0057  -4.9541  -2.3792  -2.2646   5.9863   6.6155
     8.3722   8.5255  17.7272  17.9409

     occupation numbers 
     1.0000   1.0000   1.0000   1.0000   1.0000   1.0000   1.0005   0.9995
     0.0000   0.0000   0.0000   0.0000

          k = 0.3755-0.2168 0.0961 (   632 PWs)   bands (ev):

    -8.9318  -8.6774  -3.3141  -3.1526   1.3924   1.4529   2.7550   4.2156
    10.7308  11.6846  14.7843  15.1376

     occupation numbers 
     1.0000   1.0000   1.0000   1.0000   1.0000   1.0000   1.0000   1.0000
     0.0000   0.0000   0.0000   0.0000

     the Fermi energy is     6.8658 ev

!    total energy              =     -45.44808055 Ry
     Harris-Foulkes estimate   =     -45.44808055 Ry
     estimated scf accuracy    <          6.4E-11 Ry

     The total energy is the sum of the following terms:

     one-electron contribution =      -7.60477257 Ry
     hartree contribution      =      11.88174305 Ry
     xc contribution           =     -13.88090180 Ry
     ewald contribution        =     -35.84456325 Ry
     smearing contrib. (-TS)   =       0.00041402 Ry

     convergence has been achieved in   8 iterations

     Forces acting on atoms (cartesian axes, Ry/au):

     atom    1 type  1   force =     0.00000000    0.00000000    0.00000000
     atom    2 type  1   force =    -0.00000000   -0.00000000   -0.00000000
     atom    3 type  1   force =     0.00000000    0.00000000    0.00000000
     atom    4 type  1   force =    -0.00000000   -0.00000000   -0.00000000
     The non-local contrib.  to forces
     atom    1 type  1   force =    -0.00000000   -0.00000000   -0.00000000
     atom    2 type  1   force =    -0.00000000   -0.00000000   -0.00000000
     atom    3 type  1   force =    -0.00000000   -0.00000000   -0.00000000
     atom    4 type  1   force =    -0.00000000    0.00000000    0.00000000
     The ionic contribution  to forces
     atom    1 type  1   force =     0.00000854   -0.00000493   -0.00000000
     atom    2 type  1   force =    -0.00000858    0.00000495   -0.00000000
     atom    3 type  1   force =    -0.00000854    0.00000493    0.00000000
     atom    4 type  1   force =     0.00000858   -0.00000495    0.00000000
     The local contribution  to forces
     atom    1 type  1   force =    -0.00000000    0.00000000    0.00000000
     atom    2 type  1   force =    -0.00000787    0.00000454    0.00000000
     atom    3 type  1   force =    -0.00000000   -0.00000000    0.00000000
     atom    4 type  1   force =     0.00000787   -0.00000454    0.00000000
     The core correction contribution to forces
     atom    1 type  1   force =     0.00000000    0.00000000    0.00000000
     atom    2 type  1   force =     0.00000000    0.00000000    0.00000000
     atom    3 type  1   force =     0.00000000    0.00000000    0.00000000
     atom    4 type  1   force =     0.00000000    0.00000000    0.00000000
     The Hubbard contrib.    to forces
     atom    1 type  1   force =     0.00000000    0.00000000    0.00000000
     atom    2 type  1   force =     0.00000000    0.00000000    0.00000000
     atom    3 type  1   force =     0.00000000    0.00000000    0.00000000
     atom    4 type  1   force =     0.00000000    0.00000000    0.00000000
     The SCF correction term to forces
     atom    1 type  1   force =     0.00000000   -0.00000000   -0.00000000
     atom    2 type  1   force =     0.00000000   -0.00000000   -0.00000000
     atom    3 type  1   force =    -0.00000000    0.00000000    0.00000000
     atom    4 type  1   force =    -0.00000000    0.00000000    0.00000000

     Total force =     0.000000     Total SCF correction =     0.000000


     Computing stress (Cartesian axis) and pressure

          total   stress  (Ry/bohr**3)                   (kbar)     P=    2.76
   0.00000747   0.00000000  -0.00000000          1.10      0.00     -0.00
   0.00000000   0.00000747  -0.00000000          0.00      1.10     -0.00
  -0.00000000  -0.00000000   0.00004126         -0.00     -0.00      6.07

     kinetic stress (kbar)  10999.50     -0.00     -0.00
                               -0.00  10999.50     -0.00
                               -0.00     -0.00  12679.88

     local   stress (kbar) -16850.48      0.01     -0.00
                                0.01 -16850.47      0.00
                               -0.00      0.00  24202.79

     nonloc. stress (kbar)   -465.50     -0.00      0.00
                               -0.00   -465.50      0.00
                                0.00      0.00   -458.11

     hartree stress (kbar)   6656.49      0.00     -0.00
                                0.00   6656.49     -0.00
                               -0.00     -0.00  -5626.88

     exc-cor stress (kbar)  -2760.74      0.00      0.00
                                0.00  -2760.74      0.00
                                0.00      0.00  -2760.74

     corecor stress (kbar)      0.00      0.00      0.00
                                0.00      0.00      0.00
                                0.00      0.00      0.00

     ewald   stress (kbar)   2421.83     -0.03      0.00
                               -0.03   2421.80     -0.00
                                0.00     -0.00 -28030.87

     hubbard stress (kbar)      0.00      0.00      0.00
                                0.00      0.00      0.00
                                0.00      0.00      0.00

     london  stress (kbar)      0.00      0.00      0.00
                                0.00      0.00      0.00
                                0.00      0.00      0.00

     DFT-D3  stress (kbar)      0.00      0.00      0.00
                                0.00      0.00      0.00
                                0.00      0.00      0.00

     XDM     stress (kbar)      0.00      0.00      0.00
                                0.00      0.00      0.00
                                0.00      0.00      0.00

     dft-nl  stress (kbar)      0.00      0.00      0.00
                                0.00      0.00      0.00
                                0.00      0.00      0.00

     TS-vdW  stress (kbar)      0.00      0.00      0.00
                                0.00      0.00      0.00
                                0.00      0.00      0.00



     number of scf cycles    =   3
     number of bfgs steps    =   1

     enthalpy old            =     -45.4480509034 Ry
     enthalpy new            =     -45.4480805523 Ry

     CASE: enthalpy_new < enthalpy_old

     new trust radius        =       0.0033878997 bohr
     new conv_thr            =            1.0E-11 Ry

     new unit-cell volume =    227.65824 a.u.^3 (    33.73547 Ang^3 )
     density =      2.36484 g/cm^3

CELL_PARAMETERS (alat=  4.66006464)
   0.998771218  -0.000000000   0.000000000
  -0.499385609   0.864961248   0.000000000
  -0.000000000  -0.000000000   2.604023355

ATOMIC_POSITIONS (crystal)
C        0.000000000   1.000000000   0.750000000
C        0.666667000   0.333333000   0.750000000
C        0.000000000   1.000000000   0.250000000
C        0.333333000   0.666667000   0.250000000



     Writing output data file graphite.save/
     NEW-OLD atomic charge density approx. for the potential
     extrapolated charge   16.01773, renormalised to   16.00000

     total cpu time spent up to now is        2.3 secs

     Self-consistent Calculation

     iteration #  1     ecut=    30.00 Ry     beta= 0.30
     Davidson diagonalization with overlap
     ethr =  1.00E-06,  avg # of iterations =  2.0

     Threshold (ethr) on eigenvalues was too large:
     Diagonalizing with lowered threshold

     Davidson diagonalization with overlap
     ethr =  2.87E-08,  avg # of iterations =  1.0

     total cpu time spent up to now is        2.4 secs

     total energy              =     -45.44808037 Ry
     Harris-Foulkes estimate   =     -45.44179475 Ry
     estimated scf accuracy    <       0.00000460 Ry

     iteration #  2     ecut=    30.00 Ry     beta= 0.30
     Davidson diagonalization with overlap
     ethr =  2.87E-08,  avg # of iterations =  2.8

     total cpu time spent up to now is        2.5 secs

     total energy              =     -45.44809102 Ry
     Harris-Foulkes estimate   =     -45.44809152 Ry
     estimated scf accuracy    <       0.00000208 Ry

     iteration #  3     ecut=    30.00 Ry     beta= 0.30
     Davidson diagonalization with overlap
     ethr =  1.30E-08,  avg # of iterations =  1.0

     total cpu time spent up to now is        2.5 secs

     total energy              =     -45.44809030 Ry
     Harris-Foulkes estimate   =     -45.44809106 Ry
     estimated scf accuracy    <       0.00000111 Ry

     iteration #  4     ecut=    30.00 Ry     beta= 0.30
     Davidson diagonalization with overlap
     ethr =  6.92E-09,  avg # of iterations =  2.0

     total cpu time spent up to now is        2.6 secs

     total energy              =     -45.44809055 Ry
     Harris-Foulkes estimate   =     -45.44809058 Ry
     estimated scf accuracy    <       0.00000007 Ry

     iteration #  5     ecut=    30.00 Ry     beta= 0.30
     Davidson diagonalization with overlap
     ethr =  4.65E-10,  avg # of iterations =  1.0

     total cpu time spent up to now is        2.7 secs

     total energy              =     -45.44809054 Ry
     Harris-Foulkes estimate   =     -45.44809056 Ry
     estimated scf accuracy    <       0.00000002 Ry

     iteration #  6     ecut=    30.00 Ry     beta= 0.30
     Davidson diagonalization with overlap
     ethr =  1.53E-10,  avg # of iterations =  2.0

     total cpu time spent up to now is        2.7 secs

     total energy              =     -45.44809055 Ry
     Harris-Foulkes estimate   =     -45.44809055 Ry
     estimated scf accuracy    <          8.1E-10 Ry

     iteration #  7     ecut=    30.00 Ry     beta= 0.30
     Davidson diagonalization with overlap
     ethr =  5.07E-12,  avg # of iterations =  1.3

     total cpu time spent up to now is        2.8 secs

     total energy              =     -45.44809054 Ry
     Harris-Foulkes estimate   =     -45.44809054 Ry
     estimated scf accuracy    <          2.6E-10 Ry

     iteration #  8     ecut=    30.00 Ry     beta= 0.30
     Davidson diagonalization with overlap
     ethr =  1.60E-12,  avg # of iterations =  2.0

     total cpu time spent up to now is        2.8 secs

     total energy              =     -45.44809054 Ry
     Harris-Foulkes estimate   =     -45.44809054 Ry
     estimated scf accuracy    <          2.4E-11 Ry

     iteration #  9     ecut=    30.00 Ry     beta= 0.30
     Davidson diagonalization with overlap
     ethr =  1.50E-13,  avg # of iterations =  1.8

     total cpu time spent up to now is        2.9 secs

     End of self-consistent calculation

          k = 0.1252 0.2168 0.0960 (   626 PWs)   bands (ev):

   -11.1297 -10.8388   0.2053   1.2437   1.2918   1.9197   2.2990   2.3334
    13.7592  15.4506  15.8353  16.4914

     occupation numbers 
     1.0000   1.0000   1.0000   1.0000   1.0000   1.0000   1.0000   1.0000
     0.0000   0.0000   0.0000   0.0000

          k = 0.1252 0.5058 0.0960 (   635 PWs)   bands (ev):

    -7.5549  -7.3323  -4.6478  -4.4767  -0.0255   0.0634   4.2428   5.3717
     9.2659  10.0342  16.1246  16.5576

     occupation numbers 
     1.0000   1.0000   1.0000   1.0000   1.0000   1.0000   1.0000   1.0000
     0.0000   0.0000   0.0000   0.0000

          k = 0.1252-0.3613 0.0960 (   638 PWs)   bands (ev):

    -9.6644  -9.3992  -1.5945  -1.4749   0.7495   0.8246   1.9415   3.5169
    12.2916  12.9448  15.4306  16.4979

     occupation numbers 
     1.0000   1.0000   1.0000   1.0000   1.0000   1.0000   1.0000   1.0000
     0.0000   0.0000   0.0000   0.0000

          k = 0.1252-0.0723 0.0960 (   616 PWs)   bands (ev):

   -11.8734 -11.5693  -0.6907   1.0776   3.0413   3.0945   3.7214   3.7607
    12.9040  15.7053  15.8477  17.2045

     occupation numbers 
     1.0000   1.0000   1.0000   1.0000   1.0000   1.0000   1.0000   1.0000
     0.0000   0.0000   0.0000   0.0000

          k = 0.3755 0.6503 0.0960 (   638 PWs)   bands (ev):

    -5.8902  -5.7814  -5.0189  -4.9678  -2.3921  -2.2785   5.9761   6.6019
     8.3592   8.5107  17.7133  17.9258

     occupation numbers 
     1.0000   1.0000   1.0000   1.0000   1.0000   1.0000   1.0005   0.9995
     0.0000   0.0000   0.0000   0.0000

          k = 0.3755-0.2168 0.0960 (   632 PWs)   bands (ev):

    -8.9440  -8.6917  -3.3267  -3.1666   1.3794   1.4392   2.7455   4.1983
    10.7203  11.6689  14.7728  15.1231

     occupation numbers 
     1.0000   1.0000   1.0000   1.0000   1.0000   1.0000   1.0000   1.0000
     0.0000   0.0000   0.0000   0.0000

     the Fermi energy is     6.8521 ev

!    total energy              =     -45.44809054 Ry
     Harris-Foulkes estimate   =     -45.44809054 Ry
     estimated scf accuracy    <          4.4E-12 Ry

     The total energy is the sum of the following terms:

     one-electron contribution =      -7.68678235 Ry
     hartree contribution      =      11.91475797 Ry
     xc contribution           =     -13.88064658 Ry
     ewald contribution        =     -35.79583397 Ry
     smearing contrib. (-TS)   =       0.00041439 Ry

     convergence has been achieved in   9 iterations

     Forces acting on atoms (cartesian axes, Ry/au):

     atom    1 type  1   force =    -0.00000000   -0.00000000   -0.00000000
     atom    2 type  1   force =    -0.00000000    0.00000000    0.00000000
     atom    3 type  1   force =     0.00000000    0.00000000    0.00000000
     atom    4 type  1   force =     0.00000000    0.00000000    0.00000000
     The non-local contrib.  to forces
     atom    1 type  1   force =    -0.00000000    0.00000000    0.00000000
     atom    2 type  1   force =     0.00000000    0.00000000    0.00000000
     atom    3 type  1   force =     0.00000000   -0.00000000   -0.00000000
     atom    4 type  1   force =     0.00000000    0.00000000    0.00000000
     The ionic contribution  to forces
     atom    1 type  1   force =     0.00000854   -0.00000493   -0.00000000
     atom    2 type  1   force =    -0.00000858    0.00000495    0.00000000
     atom    3 type  1   force =    -0.00000854    0.00000493    0.00000000
     atom    4 type  1   force =     0.00000858   -0.00000495    0.00000000
     The local contribution  to forces
     atom    1 type  1   force =     0.00000000    0.00000000    0.00000000
     atom    2 type  1   force =    -0.00000787    0.00000454    0.00000000
     atom    3 type  1   force =     0.00000000   -0.00000000   -0.00000000
     atom    4 type  1   force =     0.00000787   -0.00000454   -0.00000000
     The core correction contribution to forces
     atom    1 type  1   force =     0.00000000    0.00000000    0.00000000
     atom    2 type  1   force =     0.00000000    0.00000000    0.00000000
     atom    3 type  1   force =     0.00000000    0.00000000    0.00000000
     atom    4 type  1   force =     0.00000000    0.00000000    0.00000000
     The Hubbard contrib.    to forces
     atom    1 type  1   force =     0.00000000    0.00000000    0.00000000
     atom    2 type  1   force =     0.00000000    0.00000000    0.00000000
     atom    3 type  1   force =     0.00000000    0.00000000    0.00000000
     atom    4 type  1   force =     0.00000000    0.00000000    0.00000000
     The SCF correction term to forces
     atom    1 type  1   force =     0.00000000   -0.00000000   -0.00000000
     atom    2 type  1   force =    -0.00000000    0.00000000   -0.00000000
     atom    3 type  1   force =    -0.00000000    0.00000000   -0.00000000
     atom    4 type  1   force =     0.00000000   -0.00000000   -0.00000000

     Total force =     0.000000     Total SCF correction =     0.000000


     Computing stress (Cartesian axis) and pressure

          total   stress  (Ry/bohr**3)                   (kbar)     P=    2.64
   0.00000824   0.00000000  -0.00000000          1.21      0.00     -0.00
  -0.00000000   0.00000824  -0.00000000         -0.00      1.21     -0.00
  -0.00000000  -0.00000000   0.00003741         -0.00     -0.00      5.50

     kinetic stress (kbar)  10987.34      0.00     -0.00
                                0.00  10987.34     -0.00
                               -0.00     -0.00  12665.41

     local   stress (kbar) -16884.58      0.01      0.00
                                0.01 -16884.57      0.00
                                0.00      0.00  24228.74

     nonloc. stress (kbar)   -465.03     -0.00      0.00
                               -0.00   -465.03      0.00
                               -0.00     -0.00   -457.64

     hartree stress (kbar)   6670.42     -0.00      0.00
                               -0.00   6670.42     -0.00
                                0.00     -0.00  -5641.92

     exc-cor stress (kbar)  -2757.63      0.00      0.00
                                0.00  -2757.63      0.00
                                0.00      0.00  -2757.63

     corecor stress (kbar)      0.00      0.00      0.00
                                0.00      0.00      0.00
                                0.00      0.00      0.00

     ewald   stress (kbar)   2450.71     -0.03     -0.00
                               -0.03   2450.68      0.00
                               -0.00      0.00 -28031.45

     hubbard stress (kbar)      0.00      0.00      0.00
                                0.00      0.00      0.00
                                0.00      0.00      0.00

     london  stress (kbar)      0.00      0.00      0.00
                                0.00      0.00      0.00
                                0.00      0.00      0.00

     DFT-D3  stress (kbar)      0.00      0.00      0.00
                                0.00      0.00      0.00
                                0.00      0.00      0.00

     XDM     stress (kbar)      0.00      0.00      0.00
                                0.00      0.00      0.00
                                0.00      0.00      0.00

     dft-nl  stress (kbar)      0.00      0.00      0.00
                                0.00      0.00      0.00
                                0.00      0.00      0.00

     TS-vdW  stress (kbar)      0.00      0.00      0.00
                                0.00      0.00      0.00
                                0.00      0.00      0.00



     number of scf cycles    =   4
     number of bfgs steps    =   2

     enthalpy old            =     -45.4480805523 Ry
     enthalpy new            =     -45.4480905449 Ry

     CASE: enthalpy_new < enthalpy_old


     WARNING: bfgs curvature condition failed, Theta= 0.883
     new trust radius        =       0.0050789616 bohr
     new conv_thr            =            1.0E-11 Ry

     new unit-cell volume =    228.04651 a.u.^3 (    33.79301 Ang^3 )
     density =      2.36081 g/cm^3

CELL_PARAMETERS (alat=  4.66006464)
   0.998782414  -0.000000000   0.000000000
  -0.499391207   0.864970943   0.000000000
  -0.000000000  -0.000000000   2.608406120

ATOMIC_POSITIONS (crystal)
C        0.000000000   1.000000000   0.750000000
C        0.666667000   0.333333000   0.750000000
C        0.000000000   1.000000000   0.250000000
C        0.333333000   0.666667000   0.250000000



     Writing output data file graphite.save/
     NEW-OLD atomic charge density approx. for the potential
     extrapolated charge   16.02724, renormalised to   16.00000

     total cpu time spent up to now is        3.0 secs

     Self-consistent Calculation

     iteration #  1     ecut=    30.00 Ry     beta= 0.30
     Davidson diagonalization with overlap
     ethr =  1.00E-06,  avg # of iterations =  2.0

     Threshold (ethr) on eigenvalues was too large:
     Diagonalizing with lowered threshold

     Davidson diagonalization with overlap
     ethr =  6.93E-08,  avg # of iterations =  1.0

     total cpu time spent up to now is        3.2 secs

     total energy              =     -45.44807955 Ry
     Harris-Foulkes estimate   =     -45.43825774 Ry
     estimated scf accuracy    <       0.00001112 Ry

     iteration #  2     ecut=    30.00 Ry     beta= 0.30
     Davidson diagonalization with overlap
     ethr =  6.95E-08,  avg # of iterations =  2.8

     total cpu time spent up to now is        3.2 secs

     total energy              =     -45.44810496 Ry
     Harris-Foulkes estimate   =     -45.44810611 Ry
     estimated scf accuracy    <       0.00000484 Ry

     iteration #  3     ecut=    30.00 Ry     beta= 0.30
     Davidson diagonalization with overlap
     ethr =  3.02E-08,  avg # of iterations =  1.0

     total cpu time spent up to now is        3.3 secs

     total energy              =     -45.44810327 Ry
     Harris-Foulkes estimate   =     -45.44810504 Ry
     estimated scf accuracy    <       0.00000256 Ry

     iteration #  4     ecut=    30.00 Ry     beta= 0.30
     Davidson diagonalization with overlap
     ethr =  1.60E-08,  avg # of iterations =  2.0

     total cpu time spent up to now is        3.3 secs

     total energy              =     -45.44810387 Ry
     Harris-Foulkes estimate   =     -45.44810393 Ry
     estimated scf accuracy    <       0.00000017 Ry

     iteration #  5     ecut=    30.00 Ry     beta= 0.30
     Davidson diagonalization with overlap
     ethr =  1.07E-09,  avg # of iterations =  1.0

     total cpu time spent up to now is        3.4 secs

     total energy              =     -45.44810384 Ry
     Harris-Foulkes estimate   =     -45.44810387 Ry
     estimated scf accuracy    <       0.00000006 Ry

     iteration #  6     ecut=    30.00 Ry     beta= 0.30
     Davidson diagonalization with overlap
     ethr =  3.51E-10,  avg # of iterations =  2.0

     total cpu time spent up to now is        3.4 secs

     total energy              =     -45.44810385 Ry
     Harris-Foulkes estimate   =     -45.44810385 Ry
     estimated scf accuracy    <          2.2E-09 Ry

     iteration #  7     ecut=    30.00 Ry     beta= 0.30
     Davidson diagonalization with overlap
     ethr =  1.38E-11,  avg # of iterations =  1.2

     total cpu time spent up to now is        3.5 secs

     total energy              =     -45.44810385 Ry
     Harris-Foulkes estimate   =     -45.44810385 Ry
     estimated scf accuracy    <          5.8E-10 Ry

     iteration #  8     ecut=    30.00 Ry     beta= 0.30
     Davidson diagonalization with overlap
     ethr =  3.64E-12,  avg # of iterations =  2.0

     total cpu time spent up to now is        3.5 secs

     total energy              =     -45.44810385 Ry
     Harris-Foulkes estimate   =     -45.44810385 Ry
     estimated scf accuracy    <          5.6E-11 Ry

     iteration #  9     ecut=    30.00 Ry     beta= 0.30
     Davidson diagonalization with overlap
     ethr =  3.51E-13,  avg # of iterations =  2.0

     total cpu time spent up to now is        3.6 secs

     total energy              =     -45.44810385 Ry
     Harris-Foulkes estimate   =     -45.44810385 Ry
     estimated scf accuracy    <          1.0E-11 Ry

     iteration # 10     ecut=    30.00 Ry     beta= 0.30
     Davidson diagonalization with overlap
     ethr =  1.00E-13,  avg # of iterations =  2.0

     total cpu time spent up to now is        3.6 secs

     End of self-consistent calculation

          k = 0.1252 0.2168 0.0958 (   626 PWs)   bands (ev):

   -11.1478 -10.8604   0.1913   1.2237   1.2711   1.8925   2.2789   2.3127
    13.7181  15.4332  15.8140  16.4706

     occupation numbers 
     1.0000   1.0000   1.0000   1.0000   1.0000   1.0000   1.0000   1.0000
     0.0000   0.0000   0.0000   0.0000

          k = 0.1252 0.5058 0.0958 (   635 PWs)   bands (ev):

    -7.5735  -7.3538  -4.6668  -4.4980  -0.0451   0.0425   4.2277   5.3476
     9.2481  10.0107  16.1065  16.5349

     occupation numbers 
     1.0000   1.0000   1.0000   1.0000   1.0000   1.0000   1.0000   1.0000
     0.0000   0.0000   0.0000   0.0000

          k = 0.1252-0.3613 0.0958 (   638 PWs)   bands (ev):

    -9.6827  -9.4208  -1.6139  -1.4960   0.7298   0.8037   1.9272   3.4903
    12.2747  12.9221  15.3922  16.4789

     occupation numbers 
     1.0000   1.0000   1.0000   1.0000   1.0000   1.0000   1.0000   1.0000
     0.0000   0.0000   0.0000   0.0000

          k = 0.1252-0.0723 0.0958 (   616 PWs)   bands (ev):

   -11.8915 -11.5910  -0.7046   1.0501   3.0213   3.0737   3.7013   3.7400
    12.8617  15.6854  15.8264  17.1843

     occupation numbers 
     1.0000   1.0000   1.0000   1.0000   1.0000   1.0000   1.0000   1.0000
     0.0000   0.0000   0.0000   0.0000

          k = 0.3755 0.6503 0.0958 (   638 PWs)   bands (ev):

    -5.9094  -5.8021  -5.0389  -4.9884  -2.4115  -2.2994   5.9604   6.5810
     8.3392   8.4881  17.6919  17.9026

     occupation numbers 
     1.0000   1.0000   1.0000   1.0000   1.0000   1.0000   1.0006   0.9994
     0.0000   0.0000   0.0000   0.0000

          k = 0.3755-0.2168 0.0958 (   632 PWs)   bands (ev):

    -8.9624  -8.7133  -3.3458  -3.1878   1.3595   1.4184   2.7310   4.1723
    10.7039  11.6448  14.7543  15.1002

     occupation numbers 
     1.0000   1.0000   1.0000   1.0000   1.0000   1.0000   1.0000   1.0000
     0.0000   0.0000   0.0000   0.0000

     the Fermi energy is     6.8312 ev

!    total energy              =     -45.44810385 Ry
     Harris-Foulkes estimate   =     -45.44810385 Ry
     estimated scf accuracy    <          2.0E-14 Ry

     The total energy is the sum of the following terms:

     one-electron contribution =      -7.80935937 Ry
     hartree contribution      =      11.96383227 Ry
     xc contribution           =     -13.88008446 Ry
     ewald contribution        =     -35.72290727 Ry
     smearing contrib. (-TS)   =       0.00041499 Ry

     convergence has been achieved in  10 iterations

     Forces acting on atoms (cartesian axes, Ry/au):

     atom    1 type  1   force =     0.00000000    0.00000000    0.00000000
     atom    2 type  1   force =    -0.00000000    0.00000000   -0.00000000
     atom    3 type  1   force =    -0.00000000   -0.00000000   -0.00000000
     atom    4 type  1   force =     0.00000000    0.00000000    0.00000000
     The non-local contrib.  to forces
     atom    1 type  1   force =     0.00000000   -0.00000000   -0.00000000
     atom    2 type  1   force =     0.00000000   -0.00000000   -0.00000000
     atom    3 type  1   force =    -0.00000000    0.00000000    0.00000000
     atom    4 type  1   force =    -0.00000000   -0.00000000   -0.00000000
     The ionic contribution  to forces
     atom    1 type  1   force =     0.00000854   -0.00000493   -0.00000000
     atom    2 type  1   force =    -0.00000858    0.00000495   -0.00000000
     atom    3 type  1   force =    -0.00000854    0.00000493    0.00000000
     atom    4 type  1   force =     0.00000858   -0.00000495    0.00000000
     The local contribution  to forces
     atom    1 type  1   force =     0.00000000    0.00000000   -0.00000000
     atom    2 type  1   force =    -0.00000787    0.00000454   -0.00000000
     atom    3 type  1   force =     0.00000000   -0.00000000   -0.00000000
     atom    4 type  1   force =     0.00000787   -0.00000454   -0.00000000
     The core correction contribution to forces
     atom    1 type  1   force =     0.00000000    0.00000000    0.00000000
     atom    2 type  1   force =     0.00000000    0.00000000    0.00000000
     atom    3 type  1   force =     0.00000000    0.00000000    0.00000000
     atom    4 type  1   force =     0.00000000    0.00000000    0.00000000
     The Hubbard contrib.    to forces
     atom    1 type  1   force =     0.00000000    0.00000000    0.00000000
     atom    2 type  1   force =     0.00000000    0.00000000    0.00000000
     atom    3 type  1   force =     0.00000000    0.00000000    0.00000000
     atom    4 type  1   force =     0.00000000    0.00000000    0.00000000
     The SCF correction term to forces
     atom    1 type  1   force =    -0.00000000    0.00000000    0.00000000
     atom    2 type  1   force =    -0.00000000    0.00000000    0.00000000
     atom    3 type  1   force =     0.00000000   -0.00000000    0.00000000
     atom    4 type  1   force =     0.00000000   -0.00000000    0.00000000

     Total force =     0.000000     Total SCF correction =     0.000000


     Computing stress (Cartesian axis) and pressure

          total   stress  (Ry/bohr**3)                   (kbar)     P=    2.29
   0.00000745  -0.00000000  -0.00000000          1.10     -0.00     -0.00
  -0.00000000   0.00000745  -0.00000000         -0.00      1.10     -0.00
   0.00000000   0.00000000   0.00003187          0.00      0.00      4.69

     kinetic stress (kbar)  10968.39      0.00     -0.00
                                0.00  10968.39     -0.00
                               -0.00     -0.00  12643.06

     local   stress (kbar) -16933.96      0.01     -0.00
                                0.01 -16933.95      0.00
                               -0.00      0.00  24265.00

     nonloc. stress (kbar)   -464.26     -0.00      0.00
                               -0.00   -464.26      0.00
                                0.00      0.00   -456.87

     hartree stress (kbar)   6690.62     -0.00     -0.00
                               -0.00   6690.62     -0.00
                               -0.00     -0.00  -5663.79

     exc-cor stress (kbar)  -2752.82      0.00      0.00
                                0.00  -2752.82      0.00
                                0.00      0.00  -2752.82

     corecor stress (kbar)      0.00      0.00      0.00
                                0.00      0.00      0.00
                                0.00      0.00      0.00

     ewald   stress (kbar)   2493.14     -0.03      0.00
                               -0.03   2493.12     -0.00
                                0.00     -0.00 -28029.89

     hubbard stress (kbar)      0.00      0.00      0.00
                                0.00      0.00      0.00
                                0.00      0.00      0.00

     london  stress (kbar)      0.00      0.00      0.00
                                0.00      0.00      0.00
                                0.00      0.00      0.00

     DFT-D3  stress (kbar)      0.00      0.00      0.00
                                0.00      0.00      0.00
                                0.00      0.00      0.00

     XDM     stress (kbar)      0.00      0.00      0.00
                                0.00      0.00      0.00
                                0.00      0.00      0.00

     dft-nl  stress (kbar)      0.00      0.00      0.00
                                0.00      0.00      0.00
                                0.00      0.00      0.00

     TS-vdW  stress (kbar)      0.00      0.00      0.00
                                0.00      0.00      0.00
                                0.00      0.00      0.00



     number of scf cycles    =   5
     number of bfgs steps    =   3

     enthalpy old            =     -45.4480905449 Ry
     enthalpy new            =     -45.4481038458 Ry

     CASE: enthalpy_new < enthalpy_old

     new trust radius        =       0.0076121245 bohr
     new conv_thr            =            1.0E-11 Ry

     new unit-cell volume =    228.63298 a.u.^3 (    33.87991 Ang^3 )
     density =      2.35476 g/cm^3

CELL_PARAMETERS (alat=  4.66006464)
   0.998807969  -0.000000000   0.000000000
  -0.499403985   0.864993075   0.000000000
  -0.000000000  -0.000000000   2.614980266

ATOMIC_POSITIONS (crystal)
C        0.000000000   1.000000000   0.750000000
C        0.666667000   0.333333000   0.750000000
C        0.000000000   1.000000000   0.250000000
C        0.333333000   0.666667000   0.250000000



     Writing output data file graphite.save/
     NEW-OLD atomic charge density approx. for the potential
     extrapolated charge   16.04104, renormalised to   16.00000

     total cpu time spent up to now is        3.8 secs

     Self-consistent Calculation

     iteration #  1     ecut=    30.00 Ry     beta= 0.30
     Davidson diagonalization with overlap
     ethr =  1.00E-06,  avg # of iterations =  2.0

     total cpu time spent up to now is        3.9 secs

     total energy              =     -45.44806434 Ry
     Harris-Foulkes estimate   =     -45.43290197 Ry
     estimated scf accuracy    <       0.00002544 Ry

     iteration #  2     ecut=    30.00 Ry     beta= 0.30
[...]
A_1g   1.00  1.00  1.00  1.00  1.00  1.00  1.00  1.00  1.00  1.00  1.00  1.00
A_2g   1.00  1.00  1.00  1.00 -1.00 -1.00  1.00  1.00  1.00  1.00 -1.00 -1.00
B_1g   1.00 -1.00  1.00 -1.00  1.00 -1.00  1.00 -1.00  1.00 -1.00  1.00 -1.00
B_2g   1.00 -1.00  1.00 -1.00 -1.00  1.00  1.00 -1.00  1.00 -1.00 -1.00  1.00
E_1g   2.00  1.00 -1.00 -2.00  0.00  0.00  2.00  1.00 -1.00 -2.00  0.00  0.00
E_2g   2.00 -1.00 -1.00  2.00  0.00  0.00  2.00 -1.00 -1.00  2.00  0.00  0.00
A_1u   1.00  1.00  1.00  1.00  1.00  1.00 -1.00 -1.00 -1.00 -1.00 -1.00 -1.00
A_2u   1.00  1.00  1.00  1.00 -1.00 -1.00 -1.00 -1.00 -1.00 -1.00  1.00  1.00
B_1u   1.00 -1.00  1.00 -1.00  1.00 -1.00 -1.00  1.00 -1.00  1.00 -1.00  1.00
B_2u   1.00 -1.00  1.00 -1.00 -1.00  1.00 -1.00  1.00 -1.00  1.00  1.00 -1.00
E_1u   2.00  1.00 -1.00 -2.00  0.00  0.00 -2.00 -1.00  1.00  2.00  0.00  0.00
E_2u   2.00 -1.00 -1.00  2.00  0.00  0.00 -2.00  1.00  1.00 -2.00  0.00  0.00

     the symmetry operations in each class and the name of the first element:

     E        1
          identity                                               
     2C6      5    6
           60 deg rotation - cryst. axis [0,0,1]                 
     2C3      7    8
          120 deg rotation - cryst. axis [0,0,1]                 
     C2       2
          180 deg rotation - cart. axis [0,0,1]                  
     3C2'     4   12   11
          180 deg rotation - cart. axis [1,0,0]                  
     3C2''    3    9   10
          180 deg rotation - cart. axis [0,1,0]                  
     i       13
          inversion                                              
     2S3     17   18
          inv.  60 deg rotation - cryst. axis [0,0,1]            
     2S6     19   20
          inv. 120 deg rotation - cryst. axis [0,0,1]            
     s_h     14
          inv. 180 deg rotation - cart. axis [0,0,1]             
     3s_d    16   24   23
          inv. 180 deg rotation - cart. axis [1,0,0]             
     3s_v    15   21   22
          inv. 180 deg rotation - cart. axis [0,1,0]             

   Cartesian axes

     site n.     atom                  positions (alat units)
         1           C   tau(   1) = (  -0.4994400   0.8650554   1.9761621  )
         2           C   tau(   2) = (   0.4994405   0.2883515   1.9761621  )
         3           C   tau(   3) = (  -0.4994400   0.8650554   0.6587207  )
         4           C   tau(   4) = (  -0.0000005   0.5767039   0.6587207  )

   Crystallographic axes

     site n.     atom                  positions (cryst. coord.)
         1           C   tau(   1) = (  0.0000000  1.0000000  0.7500000  )
         2           C   tau(   2) = (  0.6666670  0.3333330  0.7500000  )
         3           C   tau(   3) = (  0.0000000  1.0000000  0.2500000  )
         4           C   tau(   4) = (  0.3333330  0.6666670  0.2500000  )

     number of k points=     6  Marzari-Vanderbilt smearing, width (Ry)=  0.0200
                       cart. coord. in units 2pi/alat
        k(    1) = (   0.1251402   0.2167491   0.0948809), wk =   0.2500000
        k(    2) = (   0.1251402   0.5057480   0.0948809), wk =   0.5000000
        k(    3) = (   0.1251402  -0.3612485   0.0948809), wk =   0.5000000
        k(    4) = (   0.1251402  -0.0722497   0.0948809), wk =   0.2500000
        k(    5) = (   0.3754205   0.6502474   0.0948809), wk =   0.2500000
        k(    6) = (   0.3754205  -0.2167491   0.0948809), wk =   0.2500000

                       cryst. coord.
        k(    1) = (   0.1250000   0.1250000   0.2500000), wk =   0.2500000
        k(    2) = (   0.1250000   0.3750000   0.2500000), wk =   0.5000000
        k(    3) = (   0.1250000  -0.3750000   0.2500000), wk =   0.5000000
        k(    4) = (   0.1250000  -0.1250000   0.2500000), wk =   0.2500000
        k(    5) = (   0.3750000   0.3750000   0.2500000), wk =   0.2500000
        k(    6) = (   0.3750000  -0.3750000   0.2500000), wk =   0.2500000

     Dense  grid:    14497 G-vectors     FFT dimensions: (  24,  24,  64)

     Smooth grid:     5089 G-vectors     FFT dimensions: (  18,  18,  48)

     Dynamical RAM for                 wfc:       0.06 MB

     Dynamical RAM for     wfc (w. buffer):       0.41 MB

     Dynamical RAM for           str. fact:       0.11 MB

     Dynamical RAM for           local pot:       0.05 MB

     Dynamical RAM for          nlocal pot:       0.16 MB

     Dynamical RAM for                qrad:       0.53 MB

     Dynamical RAM for          rho,v,vnew:       0.75 MB

     Dynamical RAM for               rhoin:       0.25 MB

     Dynamical RAM for            rho*nmix:       1.77 MB

     Dynamical RAM for           G-vectors:       0.43 MB

     Dynamical RAM for          h,s,v(r/c):       0.11 MB

     Dynamical RAM for          <psi|beta>:       0.01 MB

     Dynamical RAM for                 psi:       0.23 MB

     Dynamical RAM for                hpsi:       0.23 MB

     Dynamical RAM for                spsi:       0.23 MB

     Dynamical RAM for      wfcinit/wfcrot:       0.16 MB

     Dynamical RAM for           addusdens:       5.20 MB

     Dynamical RAM for          addusforce:       5.92 MB

     Dynamical RAM for         addusstress:       5.53 MB

     Estimated static dynamical RAM per process >       5.39 MB

     Estimated max dynamical RAM per process >      11.31 MB

     Estimated total dynamical RAM >      22.62 MB

     Initial potential from superposition of free atoms

     starting charge   15.99979, renormalised to   16.00000
     Starting wfcs are   16 randomized atomic wfcs

     total cpu time spent up to now is        6.1 secs

     Self-consistent Calculation

     iteration #  1     ecut=    30.00 Ry     beta= 0.30
     Davidson diagonalization with overlap
     ethr =  1.00E-06,  avg # of iterations = 11.8

     total cpu time spent up to now is        6.2 secs

     total energy              =     -45.48832493 Ry
     Harris-Foulkes estimate   =     -45.61143848 Ry
     estimated scf accuracy    <       0.35456269 Ry

     iteration #  2     ecut=    30.00 Ry     beta= 0.30
     Davidson diagonalization with overlap
     ethr =  2.22E-03,  avg # of iterations =  1.0

     total cpu time spent up to now is        6.3 secs

     total energy              =     -45.42984893 Ry
     Harris-Foulkes estimate   =     -45.49846760 Ry
     estimated scf accuracy    <       0.11652623 Ry

     iteration #  3     ecut=    30.00 Ry     beta= 0.30
     Davidson diagonalization with overlap
     ethr =  7.28E-04,  avg # of iterations =  2.3

     total cpu time spent up to now is        6.3 secs

     total energy              =     -45.44798265 Ry
     Harris-Foulkes estimate   =     -45.44844535 Ry
     estimated scf accuracy    <       0.00201606 Ry

     iteration #  4     ecut=    30.00 Ry     beta= 0.30
     Davidson diagonalization with overlap
     ethr =  1.26E-05,  avg # of iterations =  3.0

     total cpu time spent up to now is        6.4 secs

     total energy              =     -45.44811871 Ry
     Harris-Foulkes estimate   =     -45.44831702 Ry
     estimated scf accuracy    <       0.00037159 Ry

     iteration #  5     ecut=    30.00 Ry     beta= 0.30
     Davidson diagonalization with overlap
     ethr =  2.32E-06,  avg # of iterations =  2.3

     total cpu time spent up to now is        6.4 secs

     total energy              =     -45.44816825 Ry
     Harris-Foulkes estimate   =     -45.44816782 Ry
     estimated scf accuracy    <       0.00000164 Ry

     iteration #  6     ecut=    30.00 Ry     beta= 0.30
     Davidson diagonalization with overlap
     ethr =  1.03E-08,  avg # of iterations =  2.5

     total cpu time spent up to now is        6.5 secs

     total energy              =     -45.44816878 Ry
     Harris-Foulkes estimate   =     -45.44816886 Ry
     estimated scf accuracy    <       0.00000048 Ry

     iteration #  7     ecut=    30.00 Ry     beta= 0.30
     Davidson diagonalization with overlap
     ethr =  2.98E-09,  avg # of iterations =  1.0

     total cpu time spent up to now is        6.5 secs

     total energy              =     -45.44816880 Ry
     Harris-Foulkes estimate   =     -45.44816879 Ry
     estimated scf accuracy    <       0.00000003 Ry

     iteration #  8     ecut=    30.00 Ry     beta= 0.30
     Davidson diagonalization with overlap
     ethr =  2.13E-10,  avg # of iterations =  1.2

     total cpu time spent up to now is        6.6 secs

     total energy              =     -45.44816881 Ry
     Harris-Foulkes estimate   =     -45.44816880 Ry
     estimated scf accuracy    <          5.2E-09 Ry

     iteration #  9     ecut=    30.00 Ry     beta= 0.30
     Davidson diagonalization with overlap
     ethr =  3.23E-11,  avg # of iterations =  2.0

     total cpu time spent up to now is        6.7 secs

     total energy              =     -45.44816882 Ry
     Harris-Foulkes estimate   =     -45.44816881 Ry
     estimated scf accuracy    <          1.3E-09 Ry

     iteration # 10     ecut=    30.00 Ry     beta= 0.30
     Davidson diagonalization with overlap
     ethr =  8.27E-12,  avg # of iterations =  2.0

     total cpu time spent up to now is        6.7 secs

     End of self-consistent calculation

          k = 0.1251 0.2167 0.0949 (   632 PWs)   bands (ev):

   -11.2565 -10.9896   0.1075   1.1037   1.1470   1.7302   2.1581   2.1890
    13.4743  15.3271  15.6856  16.3451

     occupation numbers 
     1.0000   1.0000   1.0000   1.0000   1.0000   1.0000   1.0000   1.0000
     0.0000   0.0000   0.0000   0.0000

          k = 0.1251 0.5057 0.0949 (   646 PWs)   bands (ev):

    -7.6854  -7.4819  -4.7809  -4.6250  -0.1630  -0.0827   4.1364   5.2032
     9.1411   9.8698  15.9959  16.3978

     occupation numbers 
     1.0000   1.0000   1.0000   1.0000   1.0000   1.0000   1.0000   1.0000
     0.0000   0.0000   0.0000   0.0000

          k = 0.1251-0.3612 0.0949 (   645 PWs)   bands (ev):

    -9.7926  -9.5497  -1.7307  -1.6221   0.6112   0.6789   1.8415   3.3316
    12.1724  12.7859  15.1642  16.3638

     occupation numbers 
     1.0000   1.0000   1.0000   1.0000   1.0000   1.0000   1.0000   1.0000
     0.0000   0.0000   0.0000   0.0000

          k = 0.1251-0.0722 0.0949 (   621 PWs)   bands (ev):

   -11.9995 -11.7204  -0.7880   0.8866   2.9010   2.9488   3.5804   3.6155
    12.6115  15.5647  15.6977  17.0620

     occupation numbers 
     1.0000   1.0000   1.0000   1.0000   1.0000   1.0000   1.0000   1.0000
     0.0000   0.0000   0.0000   0.0000

          k = 0.3754 0.6502 0.0949 (   640 PWs)   bands (ev):

    -6.0249  -5.9258  -5.1584  -5.1116  -2.5276  -2.4244   5.8651   6.4555
     8.2192   8.3528  17.5637  17.7630

     occupation numbers 
     1.0000   1.0000   1.0000   1.0000   1.0000   1.0000   1.0010   0.9990
     0.0000   0.0000   0.0000   0.0000

          k = 0.3754-0.2167 0.0949 (   641 PWs)   bands (ev):

    -9.0729  -8.8419  -3.4606  -3.3148   1.2401   1.2938   2.6437   4.0173
    10.6046  11.5000  14.6422  14.9622

     occupation numbers 
     1.0000   1.0000   1.0000   1.0000   1.0000   1.0000   1.0000   1.0000
     0.0000   0.0000   0.0000   0.0000

     the Fermi energy is     6.7054 ev

!    total energy              =     -45.44816882 Ry
     Harris-Foulkes estimate   =     -45.44816882 Ry
     estimated scf accuracy    <          4.1E-12 Ry

     The total energy is the sum of the following terms:

     one-electron contribution =      -8.55056759 Ry
     hartree contribution      =      12.26122164 Ry
     xc contribution           =     -13.87654986 Ry
     ewald contribution        =     -35.28269257 Ry
     smearing contrib. (-TS)   =       0.00041955 Ry

     convergence has been achieved in  10 iterations

     Forces acting on atoms (cartesian axes, Ry/au):

     atom    1 type  1   force =     0.00000000   -0.00000000    0.00000000
     atom    2 type  1   force =    -0.00000000   -0.00000000   -0.00000000
     atom    3 type  1   force =    -0.00000000    0.00000000    0.00000000
     atom    4 type  1   force =     0.00000000    0.00000000    0.00000000
     The non-local contrib.  to forces
     atom    1 type  1   force =     0.00000000    0.00000000    0.00000000
     atom    2 type  1   force =     0.00000000    0.00000000    0.00000000
     atom    3 type  1   force =    -0.00000000   -0.00000000   -0.00000000
     atom    4 type  1   force =     0.00000000    0.00000000    0.00000000
     The ionic contribution  to forces
     atom    1 type  1   force =     0.00000854   -0.00000493    0.00000000
     atom    2 type  1   force =    -0.00000857    0.00000495    0.00000000
     atom    3 type  1   force =    -0.00000854    0.00000493   -0.00000000
     atom    4 type  1   force =     0.00000857   -0.00000495   -0.00000000
     The local contribution  to forces
     atom    1 type  1   force =    -0.00000000    0.00000000   -0.00000000
     atom    2 type  1   force =    -0.00000787    0.00000454   -0.00000000
     atom    3 type  1   force =     0.00000000   -0.00000000   -0.00000000
     atom    4 type  1   force =     0.00000787   -0.00000454   -0.00000000
     The core correction contribution to forces
     atom    1 type  1   force =     0.00000000    0.00000000    0.00000000
     atom    2 type  1   force =     0.00000000    0.00000000    0.00000000
     atom    3 type  1   force =     0.00000000    0.00000000    0.00000000
     atom    4 type  1   force =     0.00000000    0.00000000    0.00000000
     The Hubbard contrib.    to forces
     atom    1 type  1   force =     0.00000000    0.00000000    0.00000000
     atom    2 type  1   force =     0.00000000    0.00000000    0.00000000
     atom    3 type  1   force =     0.00000000    0.00000000    0.00000000
     atom    4 type  1   force =     0.00000000    0.00000000    0.00000000
     The SCF correction term to forces
     atom    1 type  1   force =     0.00000000   -0.00000000    0.00000000
     atom    2 type  1   force =    -0.00000000    0.00000000   -0.00000000
     atom    3 type  1   force =    -0.00000000    0.00000000   -0.00000000
     atom    4 type  1   force =     0.00000000   -0.00000000   -0.00000000

     Total force =     0.000000     Total SCF correction =     0.000000


     Computing stress (Cartesian axis) and pressure

          total   stress  (Ry/bohr**3)                   (kbar)     P=    0.33
   0.00000095  -0.00000000  -0.00000000          0.14     -0.00     -0.00
  -0.00000000   0.00000095  -0.00000000         -0.00      0.14     -0.00
  -0.00000000  -0.00000000   0.00000485         -0.00     -0.00      0.71

     kinetic stress (kbar)  10854.09     -0.00     -0.00
                               -0.00  10854.09     -0.00
                               -0.00     -0.00  12508.80

     local   stress (kbar) -17227.31      0.01      0.00
                                0.01 -17227.29     -0.00
                                0.00     -0.00  24479.28

     nonloc. stress (kbar)   -459.42      0.00     -0.00
                                0.00   -459.42     -0.00
                                0.00      0.00   -451.74

     hartree stress (kbar)   6811.38      0.00     -0.00
                                0.00   6811.38      0.00
                               -0.00      0.00  -5794.47

     exc-cor stress (kbar)  -2723.93      0.00      0.00
                                0.00  -2723.93      0.00
                                0.00      0.00  -2723.93

     corecor stress (kbar)      0.00      0.00      0.00
                                0.00      0.00      0.00
                                0.00      0.00      0.00

     ewald   stress (kbar)   2745.34     -0.03     -0.00
                               -0.03   2745.31      0.00
                               -0.00      0.00 -28017.22

     hubbard stress (kbar)      0.00      0.00      0.00
                                0.00      0.00      0.00
                                0.00      0.00      0.00

     london  stress (kbar)      0.00      0.00      0.00
                                0.00      0.00      0.00
                                0.00      0.00      0.00

     DFT-D3  stress (kbar)      0.00      0.00      0.00
                                0.00      0.00      0.00
                                0.00      0.00      0.00

     XDM     stress (kbar)      0.00      0.00      0.00
                                0.00      0.00      0.00
                                0.00      0.00      0.00

     dft-nl  stress (kbar)      0.00      0.00      0.00
                                0.00      0.00      0.00
                                0.00      0.00      0.00

     TS-vdW  stress (kbar)      0.00      0.00      0.00
                                0.00      0.00      0.00
                                0.00      0.00      0.00



     Writing output data file graphite.save/
 
     init_run     :      0.29s CPU      0.30s WALL (       2 calls)
     electrons    :      4.78s CPU      4.92s WALL (       9 calls)
     update_pot   :      0.55s CPU      0.57s WALL (       7 calls)
     forces       :      0.30s CPU      0.31s WALL (       9 calls)
     stress       :      0.56s CPU      0.57s WALL (       9 calls)

     Called by init_run:
     wfcinit      :      0.04s CPU      0.04s WALL (       2 calls)
     wfcinit:atom :      0.00s CPU      0.00s WALL (      12 calls)
     wfcinit:wfcr :      0.03s CPU      0.04s WALL (      12 calls)
     potinit      :      0.04s CPU      0.04s WALL (       2 calls)
     hinit0       :      0.13s CPU      0.13s WALL (       2 calls)

     Called by electrons:
     c_bands      :      3.30s CPU      3.44s WALL (      85 calls)
     sum_band     :      1.00s CPU      1.00s WALL (      85 calls)
     v_of_rho     :      0.09s CPU      0.11s WALL (      92 calls)
     v_h          :      0.03s CPU      0.03s WALL (      92 calls)
     v_xc         :      0.06s CPU      0.07s WALL (      92 calls)
     newd         :      0.30s CPU      0.27s WALL (      92 calls)
     mix_rho      :      0.08s CPU      0.07s WALL (      85 calls)

     Called by c_bands:
     init_us_2    :      0.08s CPU      0.08s WALL (    1140 calls)
     cegterg      :      3.10s CPU      3.23s WALL (     510 calls)

     Called by sum_band:
     sum_band:bec :      0.00s CPU      0.00s WALL (     510 calls)
     addusdens    :      0.28s CPU      0.30s WALL (      85 calls)

     Called by *egterg:
     h_psi        :      2.62s CPU      2.68s WALL (    1549 calls)
     s_psi        :      0.03s CPU      0.05s WALL (    1549 calls)
     g_psi        :      0.02s CPU      0.02s WALL (    1027 calls)
     cdiaghg      :      0.28s CPU      0.32s WALL (    1483 calls)
     cegterg:over :      0.06s CPU      0.07s WALL (    1027 calls)
     cegterg:upda :      0.03s CPU      0.04s WALL (    1027 calls)
     cegterg:last :      0.02s CPU      0.02s WALL (     518 calls)

     Called by h_psi:
     h_psi:pot    :      2.61s CPU      2.67s WALL (    1549 calls)
     h_psi:calbec :      0.06s CPU      0.06s WALL (    1549 calls)
     vloc_psi     :      2.51s CPU      2.55s WALL (    1549 calls)
     add_vuspsi   :      0.04s CPU      0.05s WALL (    1549 calls)

     General routines
     calbec       :      0.09s CPU      0.10s WALL (    2329 calls)
     fft          :      0.19s CPU      0.18s WALL (     588 calls)
     ffts         :      0.01s CPU      0.02s WALL (     177 calls)
     fftw         :      2.79s CPU      2.78s WALL (   36650 calls)
     interpolate  :      0.03s CPU      0.04s WALL (      92 calls)
 
     Parallel routines
     fft_scatt_xy :      0.48s CPU      0.42s WALL (   37415 calls)
     fft_scatt_yz :      0.38s CPU      0.44s WALL (   37415 calls)
 
     PWSCF        :      6.58s CPU      6.76s WALL

 
   This run was terminated on:  18:43:21   3Sep2019            

=------------------------------------------------------------------------------=
   JOB DONE.
=------------------------------------------------------------------------------=
