
     Program PWSCF v.6.4.1 starts on  3Sep2019 at 18:49:41 

     This program is part of the open-source Quantum ESPRESSO suite
     for quantum simulation of materials; please cite
         "P. Giannozzi et al., J. Phys.:Condens. Matter 21 395502 (2009);
         "P. Giannozzi et al., J. Phys.:Condens. Matter 29 465901 (2017);
          URL http://www.quantum-espresso.org", 
     in publications or presentations arising from this work. More details at
     http://www.quantum-espresso.org/quote

     Parallel version (MPI), running on     2 processors

     MPI processes distributed on     1 nodes
     R & G space division:  proc/nbgrp/npool/nimage =       2
     Waiting for input...
     Reading input from standard input

     Current dimensions of program PWSCF are:
     Max number of different atomic species (ntypx) = 10
     Max number of k-points (npk) =  40000
     Max angular momentum in pseudopotentials (lmaxx) =  3
               file C.pbe-rrkjus.UPF: wavefunction(s)  2S 2P renormalized

     -------------------------------------------------
     Parameters for Dispersion (Grimme-D2) Correction:
     -------------------------------------------------
       atom      VdW radius       C_6     

        C          2.744         60.710

     Subspace diagonalization in iterative solution of the eigenvalue problem:
     a serial algorithm will be used

 
     Parallelization info
     --------------------
     sticks:   dense  smooth     PW     G-vecs:    dense   smooth      PW
     Min         180      93     30                 7166     2525     520
     Max         181      94     31                 7173     2528     525
     Sum         361     187     61                14339     5053    1045
 


     bravais-lattice index     =            4
     lattice parameter (alat)  =       4.6601  a.u.
     unit-cell volume          =     227.8448 (a.u.)^3
     number of atoms/cell      =            4
     number of atomic types    =            1
     number of electrons       =        16.00
     number of Kohn-Sham states=           12
     kinetic-energy cutoff     =      30.0000  Ry
     charge density cutoff     =     240.0000  Ry
     convergence threshold     =      1.0E-09
     mixing beta               =       0.3000
     number of iterations used =            8  plain     mixing
     Exchange-correlation      =  SLA  PW   PBE  PBE ( 1  4  3  4 0 0)
     nstep                     =           50


     celldm(1)=   4.660065  celldm(2)=   0.000000  celldm(3)=   2.599757
     celldm(4)=   0.000000  celldm(5)=   0.000000  celldm(6)=   0.000000

     crystal axes: (cart. coord. in units of alat)
               a(1) = (   1.000000   0.000000   0.000000 )  
               a(2) = (  -0.500000   0.866025   0.000000 )  
               a(3) = (   0.000000   0.000000   2.599757 )  

     reciprocal axes: (cart. coord. in units 2 pi/alat)
               b(1) = (  1.000000  0.577350  0.000000 )  
               b(2) = (  0.000000  1.154701  0.000000 )  
               b(3) = (  0.000000  0.000000  0.384651 )  


     PseudoPot. # 1 for C  read from file:
     ../../../pseudo/C.pbe-rrkjus.UPF
     MD5 check sum: 00fb224312de0c5b6853bd333518df6f
     Pseudo is Ultrasoft, Zval =  4.0
     Generated by new atomic code, or converted to UPF format
     Using radial grid of  627 points,  4 beta functions with: 
                l(1) =   0
                l(2) =   0
                l(3) =   1
                l(4) =   1
     Q(r) pseudized with 0 coefficients 


     atomic species   valence    mass     pseudopotential
        C              4.00    12.01100     C ( 1.00)

     24 Sym. Ops., with inversion, found (12 have fractional translation)


                                    s                        frac. trans.

      isym =  1     identity                                     

 cryst.   s( 1) = (     1          0          0      )
                  (     0          1          0      )
                  (     0          0          1      )

 cart.    s( 1) = (  1.0000000  0.0000000  0.0000000 )
                  (  0.0000000  1.0000000  0.0000000 )
                  (  0.0000000  0.0000000  1.0000000 )


      isym =  2     180 deg rotation - cart. axis [0,0,1]        

 cryst.   s( 2) = (    -1          0          0      )    f =( -0.0000000 )
                  (     0         -1          0      )       ( -0.0000000 )
                  (     0          0          1      )       (  0.5000000 )

 cart.    s( 2) = ( -1.0000000  0.0000000  0.0000000 )    f =(  0.0000000 )
                  (  0.0000000 -1.0000000  0.0000000 )       ( -0.0000000 )
                  (  0.0000000  0.0000000  1.0000000 )       (  1.2998783 )


      isym =  3     180 deg rotation - cart. axis [0,1,0]        

 cryst.   s( 3) = (    -1          0          0      )    f =( -0.0000000 )
                  (     1          1          0      )       (  0.0000000 )
                  (     0          0         -1      )       (  0.5000000 )

 cart.    s( 3) = ( -1.0000000  0.0000000  0.0000000 )    f =( -0.0000000 )
                  (  0.0000000  1.0000000  0.0000000 )       (  0.0000000 )
                  (  0.0000000  0.0000000 -1.0000000 )       (  1.2998783 )


      isym =  4     180 deg rotation - cart. axis [1,0,0]        

 cryst.   s( 4) = (     1          0          0      )
                  (    -1         -1          0      )
                  (     0          0         -1      )

 cart.    s( 4) = (  1.0000000  0.0000000  0.0000000 )
                  (  0.0000000 -1.0000000  0.0000000 )
                  (  0.0000000  0.0000000 -1.0000000 )


      isym =  5      60 deg rotation - cryst. axis [0,0,1]       

 cryst.   s( 5) = (     1          1          0      )    f =(  0.0000000 )
                  (    -1          0          0      )       (  0.0000000 )
                  (     0          0          1      )       (  0.5000000 )

 cart.    s( 5) = (  0.5000000 -0.8660254  0.0000000 )    f =(  0.0000000 )
                  (  0.8660254  0.5000000  0.0000000 )       (  0.0000000 )
                  (  0.0000000  0.0000000  1.0000000 )       (  1.2998783 )


      isym =  6      60 deg rotation - cryst. axis [0,0,-1]      

 cryst.   s( 6) = (     0         -1          0      )    f =(  0.0000000 )
                  (     1          1          0      )       ( -0.0000000 )
                  (     0          0          1      )       (  0.5000000 )

 cart.    s( 6) = (  0.5000000  0.8660254  0.0000000 )    f =(  0.0000000 )
                  ( -0.8660254  0.5000000  0.0000000 )       ( -0.0000000 )
                  (  0.0000000  0.0000000  1.0000000 )       (  1.2998783 )


      isym =  7     120 deg rotation - cryst. axis [0,0,1]       

 cryst.   s( 7) = (     0          1          0      )
                  (    -1         -1          0      )
                  (     0          0          1      )

 cart.    s( 7) = ( -0.5000000 -0.8660254  0.0000000 )
                  (  0.8660254 -0.5000000  0.0000000 )
                  (  0.0000000  0.0000000  1.0000000 )


      isym =  8     120 deg rotation - cryst. axis [0,0,-1]      

 cryst.   s( 8) = (    -1         -1          0      )
                  (     1          0          0      )
                  (     0          0          1      )

 cart.    s( 8) = ( -0.5000000  0.8660254  0.0000000 )
                  ( -0.8660254 -0.5000000  0.0000000 )
                  (  0.0000000  0.0000000  1.0000000 )


      isym =  9     180 deg rotation - cryst. axis [1,-1,0]      

 cryst.   s( 9) = (     0         -1          0      )    f =( -0.0000000 )
                  (    -1          0          0      )       ( -0.0000000 )
                  (     0          0         -1      )       (  0.5000000 )

 cart.    s( 9) = (  0.5000000 -0.8660254  0.0000000 )    f =( -0.0000000 )
                  ( -0.8660254 -0.5000000  0.0000000 )       ( -0.0000000 )
                  (  0.0000000  0.0000000 -1.0000000 )       (  1.2998783 )


      isym = 10     180 deg rotation - cryst. axis [2,1,0]       

 cryst.   s(10) = (     1          1          0      )    f =(  0.0000000 )
                  (     0         -1          0      )       (  0.0000000 )
                  (     0          0         -1      )       (  0.5000000 )

 cart.    s(10) = (  0.5000000  0.8660254  0.0000000 )    f =(  0.0000000 )
                  (  0.8660254 -0.5000000  0.0000000 )       (  0.0000000 )
                  (  0.0000000  0.0000000 -1.0000000 )       (  1.2998783 )


      isym = 11     180 deg rotation - cryst. axis [0,1,0]       

 cryst.   s(11) = (    -1         -1          0      )
                  (     0          1          0      )
                  (     0          0         -1      )

 cart.    s(11) = ( -0.5000000 -0.8660254  0.0000000 )
                  ( -0.8660254  0.5000000  0.0000000 )
                  (  0.0000000  0.0000000 -1.0000000 )


      isym = 12     180 deg rotation - cryst. axis [1,1,0]       

 cryst.   s(12) = (     0          1          0      )
                  (     1          0          0      )
                  (     0          0         -1      )

 cart.    s(12) = ( -0.5000000  0.8660254  0.0000000 )
                  (  0.8660254  0.5000000  0.0000000 )
                  (  0.0000000  0.0000000 -1.0000000 )


      isym = 13     inversion                                    

 cryst.   s(13) = (    -1          0          0      )
                  (     0         -1          0      )
                  (     0          0         -1      )

 cart.    s(13) = ( -1.0000000  0.0000000  0.0000000 )
                  (  0.0000000 -1.0000000  0.0000000 )
                  (  0.0000000  0.0000000 -1.0000000 )


      isym = 14     inv. 180 deg rotation - cart. axis [0,0,1]   

 cryst.   s(14) = (     1          0          0      )    f =(  0.0000000 )
                  (     0          1          0      )       (  0.0000000 )
                  (     0          0         -1      )       (  0.5000000 )

 cart.    s(14) = (  1.0000000  0.0000000  0.0000000 )    f =(  0.0000000 )
                  (  0.0000000  1.0000000  0.0000000 )       (  0.0000000 )
                  (  0.0000000  0.0000000 -1.0000000 )       (  1.2998783 )


      isym = 15     inv. 180 deg rotation - cart. axis [0,1,0]   

 cryst.   s(15) = (     1          0          0      )    f =(  0.0000000 )
                  (    -1         -1          0      )       ( -0.0000000 )
                  (     0          0          1      )       (  0.5000000 )

 cart.    s(15) = (  1.0000000  0.0000000  0.0000000 )    f =(  0.0000000 )
                  (  0.0000000 -1.0000000  0.0000000 )       ( -0.0000000 )
                  (  0.0000000  0.0000000  1.0000000 )       (  1.2998783 )


      isym = 16     inv. 180 deg rotation - cart. axis [1,0,0]   

 cryst.   s(16) = (    -1          0          0      )
                  (     1          1          0      )
                  (     0          0          1      )

 cart.    s(16) = ( -1.0000000  0.0000000  0.0000000 )
                  (  0.0000000  1.0000000  0.0000000 )
                  (  0.0000000  0.0000000  1.0000000 )


      isym = 17     inv.  60 deg rotation - cryst. axis [0,0,1]  

 cryst.   s(17) = (    -1         -1          0      )    f =( -0.0000000 )
                  (     1          0          0      )       ( -0.0000000 )
                  (     0          0         -1      )       (  0.5000000 )

 cart.    s(17) = ( -0.5000000  0.8660254  0.0000000 )    f =(  0.0000000 )
                  ( -0.8660254 -0.5000000  0.0000000 )       ( -0.0000000 )
                  (  0.0000000  0.0000000 -1.0000000 )       (  1.2998783 )


      isym = 18     inv.  60 deg rotation - cryst. axis [0,0,-1] 

 cryst.   s(18) = (     0          1          0      )    f =( -0.0000000 )
                  (    -1         -1          0      )       (  0.0000000 )
                  (     0          0         -1      )       (  0.5000000 )

 cart.    s(18) = ( -0.5000000 -0.8660254  0.0000000 )    f =( -0.0000000 )
                  (  0.8660254 -0.5000000  0.0000000 )       (  0.0000000 )
                  (  0.0000000  0.0000000 -1.0000000 )       (  1.2998783 )


      isym = 19     inv. 120 deg rotation - cryst. axis [0,0,1]  

 cryst.   s(19) = (     0         -1          0      )
                  (     1          1          0      )
                  (     0          0         -1      )

 cart.    s(19) = (  0.5000000  0.8660254  0.0000000 )
                  ( -0.8660254  0.5000000  0.0000000 )
                  (  0.0000000  0.0000000 -1.0000000 )


      isym = 20     inv. 120 deg rotation - cryst. axis [0,0,-1] 

 cryst.   s(20) = (     1          1          0      )
                  (    -1          0          0      )
                  (     0          0         -1      )

 cart.    s(20) = (  0.5000000 -0.8660254  0.0000000 )
                  (  0.8660254  0.5000000  0.0000000 )
                  (  0.0000000  0.0000000 -1.0000000 )


      isym = 21     inv. 180 deg rotation - cryst. axis [1,-1,0] 

 cryst.   s(21) = (     0          1          0      )    f =(  0.0000000 )
                  (     1          0          0      )       (  0.0000000 )
                  (     0          0          1      )       (  0.5000000 )

 cart.    s(21) = ( -0.5000000  0.8660254  0.0000000 )    f =(  0.0000000 )
                  (  0.8660254  0.5000000  0.0000000 )       (  0.0000000 )
                  (  0.0000000  0.0000000  1.0000000 )       (  1.2998783 )


      isym = 22     inv. 180 deg rotation - cryst. axis [2,1,0]  

 cryst.   s(22) = (    -1         -1          0      )    f =( -0.0000000 )
                  (     0          1          0      )       ( -0.0000000 )
                  (     0          0          1      )       (  0.5000000 )

 cart.    s(22) = ( -0.5000000 -0.8660254  0.0000000 )    f =( -0.0000000 )
                  ( -0.8660254  0.5000000  0.0000000 )       ( -0.0000000 )
                  (  0.0000000  0.0000000  1.0000000 )       (  1.2998783 )


      isym = 23     inv. 180 deg rotation - cryst. axis [0,1,0]  

 cryst.   s(23) = (     1          1          0      )
                  (     0         -1          0      )
                  (     0          0          1      )

 cart.    s(23) = (  0.5000000  0.8660254  0.0000000 )
                  (  0.8660254 -0.5000000  0.0000000 )
                  (  0.0000000  0.0000000  1.0000000 )


      isym = 24     inv. 180 deg rotation - cryst. axis [1,1,0]  

 cryst.   s(24) = (     0         -1          0      )
                  (    -1          0          0      )
                  (     0          0          1      )

 cart.    s(24) = (  0.5000000 -0.8660254  0.0000000 )
                  ( -0.8660254 -0.5000000  0.0000000 )
                  (  0.0000000  0.0000000  1.0000000 )


     point group D_6h(6/mmm)
     there are 12 classes
     the character table:

       E     2C6   2C3   C2    3C2'  3C2'' i     2S3   2S6   s_h   3s_d  3s_v 
A_1g   1.00  1.00  1.00  1.00  1.00  1.00  1.00  1.00  1.00  1.00  1.00  1.00
A_2g   1.00  1.00  1.00  1.00 -1.00 -1.00  1.00  1.00  1.00  1.00 -1.00 -1.00
B_1g   1.00 -1.00  1.00 -1.00  1.00 -1.00  1.00 -1.00  1.00 -1.00  1.00 -1.00
B_2g   1.00 -1.00  1.00 -1.00 -1.00  1.00  1.00 -1.00  1.00 -1.00 -1.00  1.00
E_1g   2.00  1.00 -1.00 -2.00  0.00  0.00  2.00  1.00 -1.00 -2.00  0.00  0.00
E_2g   2.00 -1.00 -1.00  2.00  0.00  0.00  2.00 -1.00 -1.00  2.00  0.00  0.00
A_1u   1.00  1.00  1.00  1.00  1.00  1.00 -1.00 -1.00 -1.00 -1.00 -1.00 -1.00
A_2u   1.00  1.00  1.00  1.00 -1.00 -1.00 -1.00 -1.00 -1.00 -1.00  1.00  1.00
B_1u   1.00 -1.00  1.00 -1.00  1.00 -1.00 -1.00  1.00 -1.00  1.00 -1.00  1.00
B_2u   1.00 -1.00  1.00 -1.00 -1.00  1.00 -1.00  1.00 -1.00  1.00  1.00 -1.00
E_1u   2.00  1.00 -1.00 -2.00  0.00  0.00 -2.00 -1.00  1.00  2.00  0.00  0.00
E_2u   2.00 -1.00 -1.00  2.00  0.00  0.00 -2.00  1.00  1.00 -2.00  0.00  0.00

     the symmetry operations in each class and the name of the first element:

     E        1
          identity                                               
     2C6      5    6
           60 deg rotation - cryst. axis [0,0,1]                 
     2C3      7    8
          120 deg rotation - cryst. axis [0,0,1]                 
     C2       2
          180 deg rotation - cart. axis [0,0,1]                  
     3C2'     4   12   11
          180 deg rotation - cart. axis [1,0,0]                  
     3C2''    3    9   10
          180 deg rotation - cart. axis [0,1,0]                  
     i       13
          inversion                                              
     2S3     17   18
          inv.  60 deg rotation - cryst. axis [0,0,1]            
     2S6     19   20
          inv. 120 deg rotation - cryst. axis [0,0,1]            
     s_h     14
          inv. 180 deg rotation - cart. axis [0,0,1]             
     3s_d    16   24   23
          inv. 180 deg rotation - cart. axis [1,0,0]             
     3s_v    15   21   22
          inv. 180 deg rotation - cart. axis [0,1,0]             

   Cartesian axes

     site n.     atom                  positions (alat units)
         1           C   tau(   1) = (  -0.5000000   0.8660254   1.9498175  )
         2           C   tau(   2) = (   0.5000005   0.2886748   1.9498175  )
         3           C   tau(   3) = (  -0.5000000   0.8660254   0.6499392  )
         4           C   tau(   4) = (  -0.0000005   0.5773506   0.6499392  )

   Crystallographic axes

     site n.     atom                  positions (cryst. coord.)
         1           C   tau(   1) = (  0.0000000  1.0000000  0.7500000  )
         2           C   tau(   2) = (  0.6666670  0.3333330  0.7500000  )
         3           C   tau(   3) = (  0.0000000  1.0000000  0.2500000  )
         4           C   tau(   4) = (  0.3333330  0.6666670  0.2500000  )

     number of k points=     6  Marzari-Vanderbilt smearing, width (Ry)=  0.0200
                       cart. coord. in units 2pi/alat
        k(    1) = (   0.1250000   0.2165064   0.0961628), wk =   0.2500000
        k(    2) = (   0.1250000   0.5051815   0.0961628), wk =   0.5000000
        k(    3) = (   0.1250000  -0.3608439   0.0961628), wk =   0.5000000
        k(    4) = (   0.1250000  -0.0721688   0.0961628), wk =   0.2500000
        k(    5) = (   0.3750000   0.6495191   0.0961628), wk =   0.2500000
        k(    6) = (   0.3750000  -0.2165064   0.0961628), wk =   0.2500000

                       cryst. coord.
        k(    1) = (   0.1250000   0.1250000   0.2500000), wk =   0.2500000
        k(    2) = (   0.1250000   0.3750000   0.2500000), wk =   0.5000000
        k(    3) = (   0.1250000  -0.3750000   0.2500000), wk =   0.5000000
        k(    4) = (   0.1250000  -0.1250000   0.2500000), wk =   0.2500000
        k(    5) = (   0.3750000   0.3750000   0.2500000), wk =   0.2500000
        k(    6) = (   0.3750000  -0.3750000   0.2500000), wk =   0.2500000

     Dense  grid:    14339 G-vectors     FFT dimensions: (  24,  24,  60)

     Smooth grid:     5053 G-vectors     FFT dimensions: (  18,  18,  48)

     Dynamical RAM for                 wfc:       0.06 MB

     Dynamical RAM for     wfc (w. buffer):       0.41 MB

     Dynamical RAM for           str. fact:       0.11 MB

     Dynamical RAM for           local pot:       0.00 MB

     Dynamical RAM for          nlocal pot:       0.15 MB

     Dynamical RAM for                qrad:       0.53 MB

     Dynamical RAM for          rho,v,vnew:       0.72 MB

     Dynamical RAM for               rhoin:       0.24 MB

     Dynamical RAM for            rho*nmix:       1.75 MB

     Dynamical RAM for           G-vectors:       0.43 MB

     Dynamical RAM for          h,s,v(r/c):       0.11 MB

     Dynamical RAM for          <psi|beta>:       0.01 MB

     Dynamical RAM for                 psi:       0.23 MB

     Dynamical RAM for                hpsi:       0.23 MB

     Dynamical RAM for                spsi:       0.23 MB

     Dynamical RAM for      wfcinit/wfcrot:       0.16 MB

     Dynamical RAM for           addusdens:       5.14 MB

     Dynamical RAM for          addusforce:       5.86 MB

     Dynamical RAM for         addusstress:       5.47 MB

     Estimated static dynamical RAM per process >       5.22 MB

     Estimated max dynamical RAM per process >      11.08 MB

     Estimated total dynamical RAM >      22.16 MB

     Initial potential from superposition of free atoms

     starting charge   15.99979, renormalised to   16.00000
     Starting wfcs are   16 randomized atomic wfcs

     total cpu time spent up to now is        0.2 secs

     Self-consistent Calculation

     iteration #  1     ecut=    30.00 Ry     beta= 0.30
     Davidson diagonalization with overlap
     ethr =  1.00E-02,  avg # of iterations =  3.2

     total cpu time spent up to now is        0.5 secs

     total energy              =     -45.65354473 Ry
     Harris-Foulkes estimate   =     -45.77642525 Ry
     estimated scf accuracy    <       0.37917395 Ry

     iteration #  2     ecut=    30.00 Ry     beta= 0.30
     Davidson diagonalization with overlap
     ethr =  2.37E-03,  avg # of iterations =  1.0

     total cpu time spent up to now is        0.6 secs

     total energy              =     -45.59335322 Ry
     Harris-Foulkes estimate   =     -45.66346134 Ry
     estimated scf accuracy    <       0.12914368 Ry

     iteration #  3     ecut=    30.00 Ry     beta= 0.30
     Davidson diagonalization with overlap
     ethr =  8.07E-04,  avg # of iterations =  2.7

     total cpu time spent up to now is        0.7 secs

     total energy              =     -45.61188886 Ry
     Harris-Foulkes estimate   =     -45.61193829 Ry
     estimated scf accuracy    <       0.00193122 Ry

     iteration #  4     ecut=    30.00 Ry     beta= 0.30
     Davidson diagonalization with overlap
     ethr =  1.21E-05,  avg # of iterations =  4.5

     total cpu time spent up to now is        0.8 secs

     total energy              =     -45.61205884 Ry
     Harris-Foulkes estimate   =     -45.61219141 Ry
     estimated scf accuracy    <       0.00030681 Ry

     iteration #  5     ecut=    30.00 Ry     beta= 0.30
     Davidson diagonalization with overlap
     ethr =  1.92E-06,  avg # of iterations =  2.0

     total cpu time spent up to now is        0.9 secs

     total energy              =     -45.61210549 Ry
     Harris-Foulkes estimate   =     -45.61210316 Ry
     estimated scf accuracy    <       0.00000283 Ry

     iteration #  6     ecut=    30.00 Ry     beta= 0.30
     Davidson diagonalization with overlap
     ethr =  1.77E-08,  avg # of iterations =  2.2

     total cpu time spent up to now is        0.9 secs

     total energy              =     -45.61210631 Ry
     Harris-Foulkes estimate   =     -45.61210596 Ry
     estimated scf accuracy    <       0.00000041 Ry

     iteration #  7     ecut=    30.00 Ry     beta= 0.30
     Davidson diagonalization with overlap
     ethr =  2.53E-09,  avg # of iterations =  1.7

     total cpu time spent up to now is        1.0 secs

     total energy              =     -45.61210651 Ry
     Harris-Foulkes estimate   =     -45.61210634 Ry
     estimated scf accuracy    <          9.5E-09 Ry

     iteration #  8     ecut=    30.00 Ry     beta= 0.30
     Davidson diagonalization with overlap
     ethr =  5.97E-11,  avg # of iterations =  2.2

     total cpu time spent up to now is        1.1 secs

     End of self-consistent calculation

          k = 0.1250 0.2165 0.0962 (   626 PWs)   bands (ev):

   -11.0014 -10.7214   0.4351   1.2762   1.3232   2.0728   2.3541   2.3873
    14.3561  15.4829  15.8580  16.6419

     occupation numbers 
     1.0000   1.0000   1.0000   1.0000   1.0000   1.0000   1.0000   1.0000
     0.0000   0.0000   0.0000   0.0000

          k = 0.1250 0.5052 0.0962 (   635 PWs)   bands (ev):

    -7.4637  -7.2506  -4.5503  -4.3875   0.0512   0.1365   4.4041   5.4742
     9.4208  10.1296  16.2659  16.6791

     occupation numbers 
     1.0000   1.0000   1.0000   1.0000   1.0000   1.0000   1.0000   1.0000
     0.0000   0.0000   0.0000   0.0000

          k = 0.1250-0.3608 0.0962 (   638 PWs)   bands (ev):

    -9.5484  -9.2933  -1.5354  -1.4209   0.8226   0.8942   2.1481   3.6491
    12.3795  12.9929  15.9848  16.6502

     occupation numbers 
     1.0000   1.0000   1.0000   1.0000   1.0000   1.0000   1.0000   1.0000
     0.0000   0.0000   0.0000   0.0000

          k = 0.1250-0.0722 0.0962 (   616 PWs)   bands (ev):

   -11.7393 -11.4467  -0.4507   1.2404   3.0686   3.1202   3.7487   3.7870
    13.5115  15.8213  15.9640  17.2767

     occupation numbers 
     1.0000   1.0000   1.0000   1.0000   1.0000   1.0000   1.0000   1.0000
     0.0000   0.0000   0.0000   0.0000

          k = 0.3750 0.6495 0.0962 (   638 PWs)   bands (ev):

    -5.8379  -5.7326  -4.9231  -4.8785  -2.2601  -2.1546   6.1028   6.7067
     8.4518   8.6141  18.2611  18.4099

     occupation numbers 
     1.0000   1.0000   1.0000   1.0000   1.0000   1.0000   1.0008   0.9992
     0.0000   0.0000   0.0000   0.0000

          k = 0.3750-0.2165 0.0962 (   632 PWs)   bands (ev):

    -8.8351  -8.5926  -3.2428  -3.0891   1.4321   1.4904   2.9374   4.3183
    10.8675  11.7511  14.9205  15.2601

     occupation numbers 
     1.0000   1.0000   1.0000   1.0000   1.0000   1.0000   1.0000   1.0000
     0.0000   0.0000   0.0000   0.0000

     the Fermi energy is     6.9567 ev

!    total energy              =     -45.61210667 Ry
     Harris-Foulkes estimate   =     -45.61210651 Ry
     estimated scf accuracy    <          5.3E-10 Ry

     The total energy is the sum of the following terms:

     one-electron contribution =      -7.69694180 Ry
     hartree contribution      =      12.04978226 Ry
     xc contribution           =     -14.04938773 Ry
     ewald contribution        =     -35.87599542 Ry
     Dispersion Correction     =      -0.03998126 Ry
     smearing contrib. (-TS)   =       0.00041727 Ry

     convergence has been achieved in   8 iterations

     Forces acting on atoms (cartesian axes, Ry/au):

     atom    1 type  1   force =     0.00000000    0.00000000    0.00000000
     atom    2 type  1   force =     0.00000000    0.00000000    0.00000000
     atom    3 type  1   force =     0.00000000    0.00000000    0.00000000
     atom    4 type  1   force =     0.00000000    0.00000000    0.00000000
     The non-local contrib.  to forces
     atom    1 type  1   force =    -0.00000000   -0.00000000    0.00000000
     atom    2 type  1   force =    -0.00000000   -0.00000000    0.00000000
     atom    3 type  1   force =     0.00000000    0.00000000    0.00000000
     atom    4 type  1   force =     0.00000000   -0.00000000    0.00000000
     The ionic contribution  to forces
     atom    1 type  1   force =     0.00000852   -0.00000492   -0.00000000
     atom    2 type  1   force =    -0.00000856    0.00000494   -0.00000000
     atom    3 type  1   force =    -0.00000852    0.00000492    0.00000000
     atom    4 type  1   force =     0.00000856   -0.00000494    0.00000000
     The local contribution  to forces
     atom    1 type  1   force =    -0.00000000    0.00000000   -0.00000000
     atom    2 type  1   force =    -0.00000803    0.00000463   -0.00000000
     atom    3 type  1   force =     0.00000000   -0.00000000    0.00000000
     atom    4 type  1   force =     0.00000803   -0.00000463    0.00000000
     The core correction contribution to forces
     atom    1 type  1   force =     0.00000000    0.00000000    0.00000000
     atom    2 type  1   force =     0.00000000    0.00000000    0.00000000
     atom    3 type  1   force =     0.00000000    0.00000000    0.00000000
     atom    4 type  1   force =     0.00000000    0.00000000    0.00000000
     The Hubbard contrib.    to forces
     atom    1 type  1   force =     0.00000000    0.00000000    0.00000000
     atom    2 type  1   force =     0.00000000    0.00000000    0.00000000
     atom    3 type  1   force =     0.00000000    0.00000000    0.00000000
     atom    4 type  1   force =     0.00000000    0.00000000    0.00000000
     The SCF correction term to forces
     atom    1 type  1   force =     0.00000000   -0.00000000    0.00000000
     atom    2 type  1   force =     0.00000000   -0.00000000   -0.00000000
     atom    3 type  1   force =    -0.00000000    0.00000000    0.00000000
     atom    4 type  1   force =    -0.00000000    0.00000000    0.00000000

     Dispersion contribution to forces:
     atom    1 type  1   force =     0.00000000   -0.00000000    0.00000000
     atom    2 type  1   force =    -0.00000000    0.00000000    0.00000000
     atom    3 type  1   force =    -0.00000000    0.00000000   -0.00000000
     atom    4 type  1   force =     0.00000000   -0.00000000   -0.00000000

     Total force =     0.000000     Total SCF correction =     0.000000

     Total Dispersion Force =     0.000000


     Computing stress (Cartesian axis) and pressure

          total   stress  (Ry/bohr**3)                   (kbar)     P=  -26.16
  -0.00024877   0.00000000   0.00000000        -36.59      0.00      0.00
   0.00000000  -0.00024877   0.00000000          0.00    -36.59      0.00
   0.00000000   0.00000000  -0.00003597          0.00      0.00     -5.29

     kinetic stress (kbar)  11017.06      0.00     -0.00
                                0.00  11017.06     -0.00
                               -0.00     -0.00  12794.63

     local   stress (kbar) -16862.70      0.01     -0.00
                                0.01 -16862.69      0.00
                               -0.00      0.00  24154.15

     nonloc. stress (kbar)   -466.71     -0.00      0.00
                               -0.00   -466.71      0.00
                                0.00      0.00   -468.38

     hartree stress (kbar)   6715.21      0.00     -0.00
                                0.00   6715.21     -0.00
                               -0.00     -0.00  -5650.63

     exc-cor stress (kbar)  -2789.17      0.00     -0.00
                                0.00  -2789.17      0.00
                               -0.00      0.00  -2883.49

     corecor stress (kbar)      0.00      0.00      0.00
                                0.00      0.00      0.00
                                0.00      0.00      0.00

     ewald   stress (kbar)   2365.81     -0.03      0.00
                               -0.03   2365.78     -0.00
                                0.00     -0.00 -27894.46

     hubbard stress (kbar)      0.00      0.00      0.00
                                0.00      0.00      0.00
                                0.00      0.00      0.00

     london  stress (kbar)    -16.08      0.00      0.00
                                0.00    -16.08      0.00
                                0.00      0.00    -57.12

     DFT-D3  stress (kbar)      0.00      0.00      0.00
                                0.00      0.00      0.00
                                0.00      0.00      0.00

     XDM     stress (kbar)      0.00      0.00      0.00
                                0.00      0.00      0.00
                                0.00      0.00      0.00

     dft-nl  stress (kbar)      0.00      0.00      0.00
                                0.00      0.00      0.00
                                0.00      0.00      0.00

     TS-vdW  stress (kbar)      0.00      0.00      0.00
                                0.00      0.00      0.00
                                0.00      0.00      0.00



     BFGS Geometry Optimization

     number of scf cycles    =   1
     number of bfgs steps    =   0

     enthalpy new            =     -45.6121066654 Ry

     new trust radius        =       0.0187750195 bohr
     new conv_thr            =       0.0000000010 Ry

     new unit-cell volume =    224.81727 a.u.^3 (    33.31448 Ang^3 )
     density =      2.39472 g/cm^3

CELL_PARAMETERS (alat=  4.66006464)
   0.993780853   0.000000000   0.000000000
  -0.496890426   0.860639464   0.000000000
   0.000000000   0.000000000   2.597418765

ATOMIC_POSITIONS (crystal)
C        0.000000000   1.000000000   0.750000000
C        0.666667000   0.333333000   0.750000000
C        0.000000000   1.000000000   0.250000000
C        0.333333000   0.666667000   0.250000000



     Writing output data file graphite.save/
     NEW-OLD atomic charge density approx. for the potential
     extrapolated charge   15.78454, renormalised to   16.00000

     total cpu time spent up to now is        1.6 secs

     Self-consistent Calculation

     iteration #  1     ecut=    30.00 Ry     beta= 0.30
     Davidson diagonalization with overlap
     ethr =  1.00E-06,  avg # of iterations =  4.0

     total cpu time spent up to now is        1.9 secs

     total energy              =     -45.61036878 Ry
     Harris-Foulkes estimate   =     -45.69215295 Ry
     estimated scf accuracy    <       0.00127441 Ry

     iteration #  2     ecut=    30.00 Ry     beta= 0.30
     Davidson diagonalization with overlap
     ethr =  7.97E-06,  avg # of iterations =  3.2

     total cpu time spent up to now is        2.0 secs

     total energy              =     -45.61206762 Ry
     Harris-Foulkes estimate   =     -45.61209338 Ry
     estimated scf accuracy    <       0.00009990 Ry

     iteration #  3     ecut=    30.00 Ry     beta= 0.30
     Davidson diagonalization with overlap
     ethr =  6.24E-07,  avg # of iterations =  1.3

     total cpu time spent up to now is        2.0 secs

     total energy              =     -45.61204570 Ry
     Harris-Foulkes estimate   =     -45.61207071 Ry
     estimated scf accuracy    <       0.00004430 Ry

     iteration #  4     ecut=    30.00 Ry     beta= 0.30
     Davidson diagonalization with overlap
     ethr =  2.77E-07,  avg # of iterations =  2.0

     total cpu time spent up to now is        2.1 secs

     total energy              =     -45.61205437 Ry
     Harris-Foulkes estimate   =     -45.61205338 Ry
     estimated scf accuracy    <       0.00000056 Ry

     iteration #  5     ecut=    30.00 Ry     beta= 0.30
     Davidson diagonalization with overlap
     ethr =  3.47E-09,  avg # of iterations =  2.0

     total cpu time spent up to now is        2.2 secs

     total energy              =     -45.61205332 Ry
     Harris-Foulkes estimate   =     -45.61205457 Ry
     estimated scf accuracy    <       0.00000280 Ry

     iteration #  6     ecut=    30.00 Ry     beta= 0.30
     Davidson diagonalization with overlap
     ethr =  3.47E-09,  avg # of iterations =  2.0

     total cpu time spent up to now is        2.2 secs

     total energy              =     -45.61205328 Ry
     Harris-Foulkes estimate   =     -45.61205348 Ry
     estimated scf accuracy    <       0.00000040 Ry

     iteration #  7     ecut=    30.00 Ry     beta= 0.30
     Davidson diagonalization with overlap
     ethr =  2.48E-09,  avg # of iterations =  2.0

     total cpu time spent up to now is        2.3 secs

     total energy              =     -45.61205329 Ry
     Harris-Foulkes estimate   =     -45.61205331 Ry
     estimated scf accuracy    <       0.00000003 Ry

     iteration #  8     ecut=    30.00 Ry     beta= 0.30
     Davidson diagonalization with overlap
     ethr =  1.69E-10,  avg # of iterations =  2.0

     total cpu time spent up to now is        2.4 secs

     total energy              =     -45.61205330 Ry
     Harris-Foulkes estimate   =     -45.61205330 Ry
     estimated scf accuracy    <          4.9E-09 Ry

     iteration #  9     ecut=    30.00 Ry     beta= 0.30
     Davidson diagonalization with overlap
     ethr =  3.08E-11,  avg # of iterations =  2.0

     total cpu time spent up to now is        2.4 secs

     End of self-consistent calculation

          k = 0.1258 0.2179 0.0962 (   626 PWs)   bands (ev):

   -10.9831 -10.7037   0.4852   1.4176   1.4637   2.1216   2.4777   2.5103
    14.4647  15.7882  16.1627  16.9328

     occupation numbers 
     1.0000   1.0000   1.0000   1.0000   1.0000   1.0000   1.0000   1.0000
     0.0000   0.0000   0.0000   0.0000

          k = 0.1258 0.5083 0.0962 (   635 PWs)   bands (ev):

    -7.4004  -7.1874  -4.4774  -4.3145   0.1457   0.2300   4.5171   5.5887
     9.5992  10.3154  16.6141  17.0289

     occupation numbers 
     1.0000   1.0000   1.0000   1.0000   1.0000   1.0000   1.0000   1.0000
     0.0000   0.0000   0.0000   0.0000

          k = 0.1258-0.3631 0.0962 (   638 PWs)   bands (ev):

    -9.5135  -9.2591  -1.4226  -1.3088   0.9255   0.9965   2.2245   3.7253
    12.6202  13.2371  16.1280  16.9839

     occupation numbers 
     1.0000   1.0000   1.0000   1.0000   1.0000   1.0000   1.0000   1.0000
     0.0000   0.0000   0.0000   0.0000

          k = 0.1258-0.0726 0.0962 (   616 PWs)   bands (ev):

   -11.7293 -11.4371  -0.4138   1.2754   3.2212   3.2718   3.8978   3.9353
    13.6073  16.1097  16.2544  17.5820

     occupation numbers 
     1.0000   1.0000   1.0000   1.0000   1.0000   1.0000   1.0000   1.0000
     0.0000   0.0000   0.0000   0.0000

          k = 0.3773 0.6536 0.0962 (   638 PWs)   bands (ev):

    -5.7412  -5.6366  -4.8538  -4.8072  -2.2059  -2.0990   6.2444   6.8470
     8.6225   8.7787  18.4600  18.6310

     occupation numbers 
     1.0000   1.0000   1.0000   1.0000   1.0000   1.0000   1.0008   0.9992
     0.0000   0.0000   0.0000   0.0000

          k = 0.3773-0.2179 0.0962 (   632 PWs)   bands (ev):

    -8.7912  -8.5494  -3.1533  -3.0006   1.5418   1.5989   3.0265   4.4080
    11.0727  11.9634  15.2547  15.5896

     occupation numbers 
     1.0000   1.0000   1.0000   1.0000   1.0000   1.0000   1.0000   1.0000
     0.0000   0.0000   0.0000   0.0000

     the Fermi energy is     7.0971 ev

!    total energy              =     -45.61205330 Ry
     Harris-Foulkes estimate   =     -45.61205330 Ry
     estimated scf accuracy    <          3.1E-10 Ry

     The total energy is the sum of the following terms:

     one-electron contribution =      -7.77551682 Ry
     hartree contribution      =      12.17424799 Ry
     xc contribution           =     -14.10303414 Ry
     ewald contribution        =     -35.86778596 Ry
     Dispersion Correction     =      -0.04038184 Ry
     smearing contrib. (-TS)   =       0.00041746 Ry

     convergence has been achieved in   9 iterations

     Forces acting on atoms (cartesian axes, Ry/au):

     atom    1 type  1   force =     0.00000000    0.00000000    0.00000000
     atom    2 type  1   force =     0.00000000   -0.00000000    0.00000000
     atom    3 type  1   force =     0.00000000    0.00000000    0.00000000
     atom    4 type  1   force =    -0.00000000    0.00000000    0.00000000
     The non-local contrib.  to forces
     atom    1 type  1   force =    -0.00000000   -0.00000000    0.00000000
     atom    2 type  1   force =     0.00000000    0.00000000    0.00000000
     atom    3 type  1   force =     0.00000000    0.00000000    0.00000000
     atom    4 type  1   force =     0.00000000    0.00000000    0.00000000
     The ionic contribution  to forces
     atom    1 type  1   force =     0.00000863   -0.00000498   -0.00000000
     atom    2 type  1   force =    -0.00000866    0.00000500   -0.00000000
     atom    3 type  1   force =    -0.00000863    0.00000498    0.00000000
     atom    4 type  1   force =     0.00000866   -0.00000500    0.00000000
     The local contribution  to forces
     atom    1 type  1   force =     0.00000000    0.00000000   -0.00000000
     atom    2 type  1   force =    -0.00000795    0.00000459   -0.00000000
     atom    3 type  1   force =     0.00000000   -0.00000000    0.00000000
     atom    4 type  1   force =     0.00000795   -0.00000459    0.00000000
     The core correction contribution to forces
     atom    1 type  1   force =     0.00000000    0.00000000    0.00000000
     atom    2 type  1   force =     0.00000000    0.00000000    0.00000000
     atom    3 type  1   force =     0.00000000    0.00000000    0.00000000
     atom    4 type  1   force =     0.00000000    0.00000000    0.00000000
     The Hubbard contrib.    to forces
     atom    1 type  1   force =     0.00000000    0.00000000    0.00000000
     atom    2 type  1   force =     0.00000000    0.00000000    0.00000000
     atom    3 type  1   force =     0.00000000    0.00000000    0.00000000
     atom    4 type  1   force =     0.00000000    0.00000000    0.00000000
     The SCF correction term to forces
     atom    1 type  1   force =    -0.00000000    0.00000000    0.00000000
     atom    2 type  1   force =    -0.00000000    0.00000000    0.00000000
     atom    3 type  1   force =     0.00000000   -0.00000000   -0.00000000
     atom    4 type  1   force =     0.00000000   -0.00000000   -0.00000000

     Dispersion contribution to forces:
     atom    1 type  1   force =     0.00000000   -0.00000000    0.00000000
     atom    2 type  1   force =    -0.00000000    0.00000000    0.00000000
     atom    3 type  1   force =    -0.00000000    0.00000000   -0.00000000
     atom    4 type  1   force =     0.00000000   -0.00000000   -0.00000000

     Total force =     0.000000     Total SCF correction =     0.000000

     Total Dispersion Force =     0.000000


     Computing stress (Cartesian axis) and pressure

          total   stress  (Ry/bohr**3)                   (kbar)     P=   27.19
   0.00029809  -0.00000000   0.00000000         43.85     -0.00      0.00
   0.00000000   0.00029809  -0.00000000          0.00     43.85     -0.00
   0.00000000  -0.00000000  -0.00004160          0.00     -0.00     -6.12

     kinetic stress (kbar)  11246.69      0.00     -0.00
                                0.00  11246.69     -0.00
                               -0.00     -0.00  13015.55

     local   stress (kbar) -17322.87      0.01      0.00
                                0.01 -17322.85     -0.00
                                0.00     -0.00  24888.30

     nonloc. stress (kbar)   -488.79      0.00      0.00
                                0.00   -488.79      0.00
                                0.00      0.00   -486.41

     hartree stress (kbar)   6899.41      0.00      0.00
                                0.00   6899.41     -0.00
                                0.00     -0.00  -5832.82

     exc-cor stress (kbar)  -2837.71     -0.00      0.00
                               -0.00  -2837.71      0.00
                                0.00      0.00  -2933.71

     corecor stress (kbar)      0.00      0.00      0.00
                                0.00      0.00      0.00
                                0.00      0.00      0.00

     ewald   stress (kbar)   2564.45     -0.03      0.00
                               -0.03   2564.42      0.00
                                0.00      0.00 -28598.30

     hubbard stress (kbar)      0.00      0.00      0.00
                                0.00      0.00      0.00
                                0.00      0.00      0.00

     london  stress (kbar)    -17.32      0.00     -0.00
                                0.00    -17.32      0.00
                               -0.00      0.00    -58.73

     DFT-D3  stress (kbar)      0.00      0.00      0.00
                                0.00      0.00      0.00
                                0.00      0.00      0.00

     XDM     stress (kbar)      0.00      0.00      0.00
                                0.00      0.00      0.00
                                0.00      0.00      0.00

     dft-nl  stress (kbar)      0.00      0.00      0.00
                                0.00      0.00      0.00
                                0.00      0.00      0.00

     TS-vdW  stress (kbar)      0.00      0.00      0.00
                                0.00      0.00      0.00
                                0.00      0.00      0.00



     number of scf cycles    =   2
     number of bfgs steps    =   1

     enthalpy old            =     -45.6121066654 Ry
     enthalpy new            =     -45.6120533020 Ry

     CASE: enthalpy_new > enthalpy_old

     new trust radius        =       0.0087293766 bohr
     new conv_thr            =       0.0000000010 Ry

     new unit-cell volume =    226.43372 a.u.^3 (    33.55401 Ang^3 )
     density =      2.37763 g/cm^3

CELL_PARAMETERS (alat=  4.66006464)
   0.997107129   0.000000000   0.000000000
  -0.498553565   0.863520104   0.000000000
   0.000000000   0.000000000   2.598669192

ATOMIC_POSITIONS (crystal)
C        0.000000000   1.000000000   0.750000000
C        0.666667000   0.333333000   0.750000000
C        0.000000000   1.000000000   0.250000000
C        0.333333000   0.666667000   0.250000000



     Writing output data file graphite.save/
     NEW-OLD atomic charge density approx. for the potential
     extrapolated charge   16.11422, renormalised to   16.00000

     total cpu time spent up to now is        2.9 secs

     Self-consistent Calculation

     iteration #  1     ecut=    30.00 Ry     beta= 0.30
     Davidson diagonalization with overlap
     ethr =  1.00E-06,  avg # of iterations =  3.2

     total cpu time spent up to now is        3.2 secs

     total energy              =     -45.61178871 Ry
     Harris-Foulkes estimate   =     -45.57009645 Ry
     estimated scf accuracy    <       0.00036464 Ry

     iteration #  2     ecut=    30.00 Ry     beta= 0.30
     Davidson diagonalization with overlap
     ethr =  2.28E-06,  avg # of iterations =  3.0

     total cpu time spent up to now is        3.3 secs

     total energy              =     -45.61227796 Ry
     Harris-Foulkes estimate   =     -45.61228569 Ry
     estimated scf accuracy    <       0.00003001 Ry

     iteration #  3     ecut=    30.00 Ry     beta= 0.30
     Davidson diagonalization with overlap
     ethr =  1.88E-07,  avg # of iterations =  1.0

     total cpu time spent up to now is        3.3 secs

     total energy              =     -45.61227138 Ry
     Harris-Foulkes estimate   =     -45.61227888 Ry
     estimated scf accuracy    <       0.00001341 Ry

     iteration #  4     ecut=    30.00 Ry     beta= 0.30
     Davidson diagonalization with overlap
     ethr =  8.38E-08,  avg # of iterations =  2.0

     total cpu time spent up to now is        3.4 secs

     total energy              =     -45.61227383 Ry
     Harris-Foulkes estimate   =     -45.61227356 Ry
     estimated scf accuracy    <       0.00000010 Ry

     iteration #  5     ecut=    30.00 Ry     beta= 0.30
     Davidson diagonalization with overlap
     ethr =  6.28E-10,  avg # of iterations =  2.2

     total cpu time spent up to now is        3.5 secs

     total energy              =     -45.61227358 Ry
     Harris-Foulkes estimate   =     -45.61227391 Ry
     estimated scf accuracy    <       0.00000074 Ry

     iteration #  6     ecut=    30.00 Ry     beta= 0.30
     Davidson diagonalization with overlap
     ethr =  6.28E-10,  avg # of iterations =  2.0

     total cpu time spent up to now is        3.5 secs

     total energy              =     -45.61227357 Ry
     Harris-Foulkes estimate   =     -45.61227362 Ry
     estimated scf accuracy    <       0.00000011 Ry

     iteration #  7     ecut=    30.00 Ry     beta= 0.30
     Davidson diagonalization with overlap
     ethr =  6.28E-10,  avg # of iterations =  2.0

     total cpu time spent up to now is        3.6 secs

     total energy              =     -45.61227357 Ry
     Harris-Foulkes estimate   =     -45.61227358 Ry
     estimated scf accuracy    <          9.2E-09 Ry

     iteration #  8     ecut=    30.00 Ry     beta= 0.30
     Davidson diagonalization with overlap
     ethr =  5.72E-11,  avg # of iterations =  2.0

     total cpu time spent up to now is        3.6 secs

     total energy              =     -45.61227358 Ry
     Harris-Foulkes estimate   =     -45.61227358 Ry
     estimated scf accuracy    <          1.9E-09 Ry

     iteration #  9     ecut=    30.00 Ry     beta= 0.30
     Davidson diagonalization with overlap
     ethr =  1.21E-11,  avg # of iterations =  2.0

     total cpu time spent up to now is        3.7 secs

     End of self-consistent calculation

          k = 0.1254 0.2171 0.0962 (   626 PWs)   bands (ev):

   -10.9931 -10.7133   0.4583   1.3415   1.3881   2.0954   2.4112   2.4440
    14.4065  15.6242  15.9990  16.7766

     occupation numbers 
     1.0000   1.0000   1.0000   1.0000   1.0000   1.0000   1.0000   1.0000
     0.0000   0.0000   0.0000   0.0000

          k = 0.1254 0.5066 0.0962 (   635 PWs)   bands (ev):

    -7.4344  -7.2214  -4.5167  -4.3539   0.0948   0.1796   4.4564   5.5272
     9.5034  10.2156  16.4271  16.8412

     occupation numbers 
     1.0000   1.0000   1.0000   1.0000   1.0000   1.0000   1.0000   1.0000
     0.0000   0.0000   0.0000   0.0000

          k = 0.1254-0.3619 0.0962 (   638 PWs)   bands (ev):

    -9.5323  -9.2776  -1.4833  -1.3691   0.8701   0.9414   2.1835   3.6844
    12.4910  13.1059  16.0515  16.8047

     occupation numbers 
     1.0000   1.0000   1.0000   1.0000   1.0000   1.0000   1.0000   1.0000
     0.0000   0.0000   0.0000   0.0000

          k = 0.1254-0.0724 0.0962 (   616 PWs)   bands (ev):

   -11.7348 -11.4424  -0.4336   1.2567   3.1391   3.1902   3.8176   3.8555
    13.5560  15.9549  16.0984  17.4179

     occupation numbers 
     1.0000   1.0000   1.0000   1.0000   1.0000   1.0000   1.0000   1.0000
     0.0000   0.0000   0.0000   0.0000

          k = 0.3761 0.6514 0.0962 (   638 PWs)   bands (ev):

    -5.7933  -5.6883  -4.8910  -4.8455  -2.2353  -2.1292   6.1684   6.7716
     8.5308   8.6903  18.3535  18.5131

     occupation numbers 
     1.0000   1.0000   1.0000   1.0000   1.0000   1.0000   1.0008   0.9992
     0.0000   0.0000   0.0000   0.0000

          k = 0.3761-0.2171 0.0962 (   632 PWs)   bands (ev):

    -8.8149  -8.5727  -3.2015  -3.0483   1.4828   1.5405   2.9787   4.3598
    10.9625  11.8494  15.0753  15.4129

     occupation numbers 
     1.0000   1.0000   1.0000   1.0000   1.0000   1.0000   1.0000   1.0000
     0.0000   0.0000   0.0000   0.0000

     the Fermi energy is     7.0217 ev

!    total energy              =     -45.61227358 Ry
     Harris-Foulkes estimate   =     -45.61227358 Ry
     estimated scf accuracy    <          2.0E-10 Ry

     The total energy is the sum of the following terms:

     one-electron contribution =      -7.73302964 Ry
     hartree contribution      =      12.10730859 Ry
     xc contribution           =     -14.07425673 Ry
     ewald contribution        =     -35.87254839 Ry
     Dispersion Correction     =      -0.04016477 Ry
     smearing contrib. (-TS)   =       0.00041736 Ry

     convergence has been achieved in   9 iterations

     Forces acting on atoms (cartesian axes, Ry/au):

     atom    1 type  1   force =     0.00000000    0.00000000    0.00000000
     atom    2 type  1   force =     0.00000000    0.00000000    0.00000000
     atom    3 type  1   force =     0.00000000    0.00000000    0.00000000
     atom    4 type  1   force =     0.00000000    0.00000000    0.00000000
     The non-local contrib.  to forces
     atom    1 type  1   force =     0.00000000    0.00000000    0.00000000
     atom    2 type  1   force =    -0.00000000   -0.00000000    0.00000000
     atom    3 type  1   force =     0.00000000    0.00000000    0.00000000
     atom    4 type  1   force =     0.00000000   -0.00000000    0.00000000
     The ionic contribution  to forces
     atom    1 type  1   force =     0.00000857   -0.00000495   -0.00000000
     atom    2 type  1   force =    -0.00000861    0.00000497   -0.00000000
     atom    3 type  1   force =    -0.00000857    0.00000495    0.00000000
     atom    4 type  1   force =     0.00000861   -0.00000497    0.00000000
     The local contribution  to forces
     atom    1 type  1   force =    -0.00000000    0.00000000   -0.00000000
     atom    2 type  1   force =    -0.00000799    0.00000461   -0.00000000
     atom    3 type  1   force =    -0.00000000   -0.00000000    0.00000000
     atom    4 type  1   force =     0.00000799   -0.00000461    0.00000000
     The core correction contribution to forces
     atom    1 type  1   force =     0.00000000    0.00000000    0.00000000
     atom    2 type  1   force =     0.00000000    0.00000000    0.00000000
     atom    3 type  1   force =     0.00000000    0.00000000    0.00000000
     atom    4 type  1   force =     0.00000000    0.00000000    0.00000000
     The Hubbard contrib.    to forces
     atom    1 type  1   force =     0.00000000    0.00000000    0.00000000
     atom    2 type  1   force =     0.00000000    0.00000000    0.00000000
     atom    3 type  1   force =     0.00000000    0.00000000    0.00000000
     atom    4 type  1   force =     0.00000000    0.00000000    0.00000000
     The SCF correction term to forces
     atom    1 type  1   force =     0.00000000   -0.00000000   -0.00000000
     atom    2 type  1   force =     0.00000000   -0.00000000   -0.00000000
     atom    3 type  1   force =    -0.00000000    0.00000000    0.00000000
     atom    4 type  1   force =    -0.00000000    0.00000000    0.00000000

     Dispersion contribution to forces:
     atom    1 type  1   force =     0.00000000   -0.00000000    0.00000000
     atom    2 type  1   force =    -0.00000000    0.00000000    0.00000000
     atom    3 type  1   force =    -0.00000000    0.00000000   -0.00000000
     atom    4 type  1   force =     0.00000000   -0.00000000   -0.00000000

     Total force =     0.000000     Total SCF correction =     0.000000

     Total Dispersion Force =     0.000000


     Computing stress (Cartesian axis) and pressure

          total   stress  (Ry/bohr**3)                   (kbar)     P=   -1.70
   0.00000160  -0.00000000  -0.00000000          0.24     -0.00     -0.00
  -0.00000000   0.00000160   0.00000000         -0.00      0.24      0.00
   0.00000000   0.00000000  -0.00003783          0.00      0.00     -5.57

     kinetic stress (kbar)  11123.04      0.00     -0.00
                                0.00  11123.04      0.00
                               -0.00      0.00  12896.77

     local   stress (kbar) -17074.87      0.01     -0.00
                                0.01 -17074.86      0.00
                               -0.00      0.00  24492.65

     nonloc. stress (kbar)   -476.89      0.00      0.00
                                0.00   -476.89      0.00
                                0.00      0.00   -476.70

     hartree stress (kbar)   6800.12      0.00     -0.00
                                0.00   6800.12     -0.00
                               -0.00     -0.00  -5734.60

     exc-cor stress (kbar)  -2811.60     -0.00     -0.00
                               -0.00  -2811.60     -0.00
                               -0.00     -0.00  -2906.70

     corecor stress (kbar)      0.00      0.00      0.00
                                0.00      0.00      0.00
                                0.00      0.00      0.00

     ewald   stress (kbar)   2457.09     -0.03      0.00
                               -0.03   2457.06      0.00
                                0.00      0.00 -28219.12

     hubbard stress (kbar)      0.00      0.00      0.00
                                0.00      0.00      0.00
                                0.00      0.00      0.00

     london  stress (kbar)    -16.64      0.00     -0.00
                                0.00    -16.64      0.00
                               -0.00      0.00    -57.86

     DFT-D3  stress (kbar)      0.00      0.00      0.00
                                0.00      0.00      0.00
                                0.00      0.00      0.00

     XDM     stress (kbar)      0.00      0.00      0.00
                                0.00      0.00      0.00
                                0.00      0.00      0.00

     dft-nl  stress (kbar)      0.00      0.00      0.00
                                0.00      0.00      0.00
                                0.00      0.00      0.00

     TS-vdW  stress (kbar)      0.00      0.00      0.00
                                0.00      0.00      0.00
                                0.00      0.00      0.00



     number of scf cycles    =   3
     number of bfgs steps    =   1

     enthalpy old            =     -45.6121066654 Ry
     enthalpy new            =     -45.6122735766 Ry

     CASE: enthalpy_new < enthalpy_old

     new trust radius        =       0.0028683898 bohr
     new conv_thr            =            1.0E-11 Ry

     new unit-cell volume =    226.21058 a.u.^3 (    33.52095 Ang^3 )
     density =      2.37997 g/cm^3

CELL_PARAMETERS (alat=  4.66006464)
   0.997090996   0.000000000   0.000000000
  -0.498545498   0.863506133   0.000000000
  -0.000000000   0.000000000   2.596192405

ATOMIC_POSITIONS (crystal)
C        0.000000000   1.000000000   0.750000000
C        0.666667000   0.333333000   0.750000000
C        0.000000000   1.000000000   0.250000000
C        0.333333000   0.666667000   0.250000000



     Writing output data file graphite.save/
     NEW-OLD atomic charge density approx. for the potential
     extrapolated charge   15.98422, renormalised to   16.00000

     total cpu time spent up to now is        4.2 secs

     Self-consistent Calculation

     iteration #  1     ecut=    30.00 Ry     beta= 0.30
     Davidson diagonalization with overlap
     ethr =  1.00E-06,  avg # of iterations =  2.0

     Threshold (ethr) on eigenvalues was too large:
     Diagonalizing with lowered threshold

     Davidson diagonalization with overlap
     ethr =  2.12E-08,  avg # of iterations =  1.0

     total cpu time spent up to now is        4.5 secs

     total energy              =     -45.61227369 Ry
     Harris-Foulkes estimate   =     -45.61803350 Ry
     estimated scf accuracy    <       0.00000340 Ry

     iteration #  2     ecut=    30.00 Ry     beta= 0.30
     Davidson diagonalization with overlap
     ethr =  2.12E-08,  avg # of iterations =  2.8

     total cpu time spent up to now is        4.6 secs

     total energy              =     -45.61228181 Ry
     Harris-Foulkes estimate   =     -45.61228214 Ry
     estimated scf accuracy    <       0.00000152 Ry

     iteration #  3     ecut=    30.00 Ry     beta= 0.30
     Davidson diagonalization with overlap
     ethr =  9.48E-09,  avg # of iterations =  1.0

     total cpu time spent up to now is        4.6 secs

     total energy              =     -45.61228131 Ry
     Harris-Foulkes estimate   =     -45.61228183 Ry
     estimated scf accuracy    <       0.00000083 Ry

     iteration #  4     ecut=    30.00 Ry     beta= 0.30
     Davidson diagonalization with overlap
     ethr =  5.18E-09,  avg # of iterations =  2.0

     total cpu time spent up to now is        4.7 secs

     total energy              =     -45.61228148 Ry
     Harris-Foulkes estimate   =     -45.61228149 Ry
     estimated scf accuracy    <       0.00000005 Ry

     iteration #  5     ecut=    30.00 Ry     beta= 0.30
     Davidson diagonalization with overlap
     ethr =  3.09E-10,  avg # of iterations =  1.0

     total cpu time spent up to now is        4.8 secs

     total energy              =     -45.61228147 Ry
     Harris-Foulkes estimate   =     -45.61228148 Ry
     estimated scf accuracy    <       0.00000002 Ry

     iteration #  6     ecut=    30.00 Ry     beta= 0.30
     Davidson diagonalization with overlap
     ethr =  1.16E-10,  avg # of iterations =  2.0

     total cpu time spent up to now is        4.8 secs

     total energy              =     -45.61228147 Ry
     Harris-Foulkes estimate   =     -45.61228147 Ry
     estimated scf accuracy    <          1.1E-09 Ry

     iteration #  7     ecut=    30.00 Ry     beta= 0.30
     Davidson diagonalization with overlap
     ethr =  6.70E-12,  avg # of iterations =  1.0

     total cpu time spent up to now is        4.9 secs

     total energy              =     -45.61228147 Ry
     Harris-Foulkes estimate   =     -45.61228147 Ry
     estimated scf accuracy    <          2.1E-10 Ry

     iteration #  8     ecut=    30.00 Ry     beta= 0.30
     Davidson diagonalization with overlap
     ethr =  1.31E-12,  avg # of iterations =  2.0

     total cpu time spent up to now is        4.9 secs

     End of self-consistent calculation

          k = 0.1254 0.2171 0.0963 (   626 PWs)   bands (ev):

   -10.9828 -10.7011   0.4663   1.3530   1.4000   2.1108   2.4227   2.4559
    14.4293  15.6346  16.0116  16.7887

     occupation numbers 
     1.0000   1.0000   1.0000   1.0000   1.0000   1.0000   1.0000   1.0000
     0.0000   0.0000   0.0000   0.0000

          k = 0.1254 0.5067 0.0963 (   635 PWs)   bands (ev):

    -7.4238  -7.2092  -4.5058  -4.3418   0.1060   0.1916   4.4652   5.5410
     9.5137  10.2292  16.4380  16.8545

     occupation numbers 
     1.0000   1.0000   1.0000   1.0000   1.0000   1.0000   1.0000   1.0000
     0.0000   0.0000   0.0000   0.0000

          k = 0.1254-0.3619 0.0963 (   638 PWs)   bands (ev):

    -9.5219  -9.2653  -1.4721  -1.3571   0.8814   0.9533   2.1917   3.6995
    12.5009  13.1191  16.0724  16.8161

     occupation numbers 
     1.0000   1.0000   1.0000   1.0000   1.0000   1.0000   1.0000   1.0000
     0.0000   0.0000   0.0000   0.0000

          k = 0.1254-0.0724 0.0963 (   616 PWs)   bands (ev):

   -11.7246 -11.4301  -0.4257   1.2722   3.1506   3.2022   3.8292   3.8674
    13.5795  15.9666  16.1110  17.4298

     occupation numbers 
     1.0000   1.0000   1.0000   1.0000   1.0000   1.0000   1.0000   1.0000
     0.0000   0.0000   0.0000   0.0000

          k = 0.3761 0.6514 0.0963 (   638 PWs)   bands (ev):

    -5.7823  -5.6765  -4.8796  -4.8337  -2.2243  -2.1173   6.1776   6.7837
     8.5424   8.7033  18.3655  18.5259

     occupation numbers 
     1.0000   1.0000   1.0000   1.0000   1.0000   1.0000   1.0008   0.9992
     0.0000   0.0000   0.0000   0.0000

          k = 0.3761-0.2171 0.0963 (   632 PWs)   bands (ev):

    -8.8044  -8.5605  -3.1906  -3.0362   1.4942   1.5524   2.9870   4.3746
    10.9722  11.8633  15.0862  15.4262

     occupation numbers 
     1.0000   1.0000   1.0000   1.0000   1.0000   1.0000   1.0000   1.0000
     0.0000   0.0000   0.0000   0.0000

     the Fermi energy is     7.0338 ev

!    total energy              =     -45.61228147 Ry
     Harris-Foulkes estimate   =     -45.61228147 Ry
     estimated scf accuracy    <          2.9E-13 Ry

     The total energy is the sum of the following terms:

     one-electron contribution =      -7.66356478 Ry
     hartree contribution      =      12.07951792 Ry
     xc contribution           =     -14.07457401 Ry
     ewald contribution        =     -35.91382691 Ry
     Dispersion Correction     =      -0.04025061 Ry
     smearing contrib. (-TS)   =       0.00041692 Ry

     convergence has been achieved in   8 iterations

     Forces acting on atoms (cartesian axes, Ry/au):

     atom    1 type  1   force =     0.00000000    0.00000000    0.00000000
     atom    2 type  1   force =     0.00000000    0.00000000    0.00000000
     atom    3 type  1   force =     0.00000000    0.00000000    0.00000000
     atom    4 type  1   force =     0.00000000    0.00000000    0.00000000
     The non-local contrib.  to forces
     atom    1 type  1   force =    -0.00000000   -0.00000000    0.00000000
     atom    2 type  1   force =     0.00000000    0.00000000   -0.00000000
     atom    3 type  1   force =    -0.00000000    0.00000000   -0.00000000
     atom    4 type  1   force =    -0.00000000    0.00000000   -0.00000000
     The ionic contribution  to forces
     atom    1 type  1   force =     0.00000857   -0.00000495   -0.00000000
     atom    2 type  1   force =    -0.00000861    0.00000497   -0.00000000
     atom    3 type  1   force =    -0.00000857    0.00000495    0.00000000
     atom    4 type  1   force =     0.00000861   -0.00000497    0.00000000
     The local contribution  to forces
     atom    1 type  1   force =    -0.00000000    0.00000000    0.00000000
     atom    2 type  1   force =    -0.00000799    0.00000461    0.00000000
     atom    3 type  1   force =    -0.00000000   -0.00000000    0.00000000
     atom    4 type  1   force =     0.00000799   -0.00000461    0.00000000
     The core correction contribution to forces
     atom    1 type  1   force =     0.00000000    0.00000000    0.00000000
     atom    2 type  1   force =     0.00000000    0.00000000    0.00000000
     atom    3 type  1   force =     0.00000000    0.00000000    0.00000000
     atom    4 type  1   force =     0.00000000    0.00000000    0.00000000
     The Hubbard contrib.    to forces
     atom    1 type  1   force =     0.00000000    0.00000000    0.00000000
     atom    2 type  1   force =     0.00000000    0.00000000    0.00000000
     atom    3 type  1   force =     0.00000000    0.00000000    0.00000000
     atom    4 type  1   force =     0.00000000    0.00000000    0.00000000
     The SCF correction term to forces
     atom    1 type  1   force =    -0.00000000    0.00000000   -0.00000000
     atom    2 type  1   force =     0.00000000   -0.00000000   -0.00000000
     atom    3 type  1   force =     0.00000000   -0.00000000    0.00000000
     atom    4 type  1   force =    -0.00000000    0.00000000    0.00000000

     Dispersion contribution to forces:
     atom    1 type  1   force =     0.00000000   -0.00000000    0.00000000
     atom    2 type  1   force =    -0.00000000    0.00000000    0.00000000
     atom    3 type  1   force =    -0.00000000    0.00000000    0.00000000
     atom    4 type  1   force =     0.00000000   -0.00000000    0.00000000

     Total force =     0.000000     Total SCF correction =     0.000000

     Total Dispersion Force =     0.000000


     Computing stress (Cartesian axis) and pressure

          total   stress  (Ry/bohr**3)                   (kbar)     P=   -1.49
   0.00000239  -0.00000000   0.00000000          0.35     -0.00      0.00
  -0.00000000   0.00000239   0.00000000         -0.00      0.35      0.00
   0.00000000   0.00000000  -0.00003514          0.00      0.00     -5.17

     kinetic stress (kbar)  11134.27     -0.00     -0.00
                               -0.00  11134.27     -0.00
                               -0.00     -0.00  12910.00

     local   stress (kbar) -17047.36      0.01     -0.00
                                0.01 -17047.35      0.00
                               -0.00      0.00  24473.09

     nonloc. stress (kbar)   -477.38      0.00     -0.00
                                0.00   -477.38     -0.00
                                0.00      0.00   -477.20

     hartree stress (kbar)   6788.83      0.00      0.00
                                0.00   6788.83      0.00
                                0.00      0.00  -5722.34

     exc-cor stress (kbar)  -2814.46     -0.00     -0.00
                               -0.00  -2814.46      0.00
                               -0.00      0.00  -2909.57

     corecor stress (kbar)      0.00      0.00      0.00
                                0.00      0.00      0.00
                                0.00      0.00      0.00

     ewald   stress (kbar)   2433.17     -0.03      0.00
                               -0.03   2433.14     -0.00
                                0.00     -0.00 -28221.13

     hubbard stress (kbar)      0.00      0.00      0.00
                                0.00      0.00      0.00
                                0.00      0.00      0.00

     london  stress (kbar)    -16.72      0.00      0.00
                                0.00    -16.72      0.00
                                0.00      0.00    -58.03

     DFT-D3  stress (kbar)      0.00      0.00      0.00
                                0.00      0.00      0.00
                                0.00      0.00      0.00

     XDM     stress (kbar)      0.00      0.00      0.00
                                0.00      0.00      0.00
                                0.00      0.00      0.00

     dft-nl  stress (kbar)      0.00      0.00      0.00
                                0.00      0.00      0.00
                                0.00      0.00      0.00

     TS-vdW  stress (kbar)      0.00      0.00      0.00
                                0.00      0.00      0.00
                                0.00      0.00      0.00



     number of scf cycles    =   4
     number of bfgs steps    =   2

     enthalpy old            =     -45.6122735766 Ry
     enthalpy new            =     -45.6122814698 Ry

     CASE: enthalpy_new < enthalpy_old


     WARNING: bfgs curvature condition failed, Theta= 0.862
     new trust radius        =       0.0031566824 bohr
     new conv_thr            =            1.0E-11 Ry

     new unit-cell volume =    225.96911 a.u.^3 (    33.48517 Ang^3 )
     density =      2.38252 g/cm^3

CELL_PARAMETERS (alat=  4.66006464)
   0.997081972   0.000000000   0.000000000
  -0.498540986   0.863498317   0.000000000
  -0.000000000   0.000000000   2.593467939

ATOMIC_POSITIONS (crystal)
C        0.000000000   1.000000000   0.750000000
C        0.666667000   0.333333000   0.750000000
C        0.000000000   1.000000000   0.250000000
C        0.333333000   0.666667000   0.250000000



     Writing output data file graphite.save/
     NEW-OLD atomic charge density approx. for the potential
     extrapolated charge   15.98290, renormalised to   16.00000

     total cpu time spent up to now is        5.5 secs

     Self-consistent Calculation

     iteration #  1     ecut=    30.00 Ry     beta= 0.30
     Davidson diagonalization with overlap
     ethr =  1.00E-06,  avg # of iterations =  2.0

     Threshold (ethr) on eigenvalues was too large:
     Diagonalizing with lowered threshold

     Davidson diagonalization with overlap
     ethr =  2.46E-08,  avg # of iterations =  1.0

     total cpu time spent up to now is        5.8 secs

     total energy              =     -45.61228032 Ry
     Harris-Foulkes estimate   =     -45.61845470 Ry
     estimated scf accuracy    <       0.00000395 Ry

     iteration #  2     ecut=    30.00 Ry     beta= 0.30
     Davidson diagonalization with overlap
     ethr =  2.47E-08,  avg # of iterations =  2.8

     total cpu time spent up to now is        5.8 secs

     total energy              =     -45.61228980 Ry
     Harris-Foulkes estimate   =     -45.61229019 Ry
     estimated scf accuracy    <       0.00000179 Ry

     iteration #  3     ecut=    30.00 Ry     beta= 0.30
     Davidson diagonalization with overlap
     ethr =  1.12E-08,  avg # of iterations =  1.0

     total cpu time spent up to now is        5.9 secs

     total energy              =     -45.61228921 Ry
     Harris-Foulkes estimate   =     -45.61228983 Ry
     estimated scf accuracy    <       0.00000098 Ry

     iteration #  4     ecut=    30.00 Ry     beta= 0.30
     Davidson diagonalization with overlap
     ethr =  6.13E-09,  avg # of iterations =  2.0

     total cpu time spent up to now is        5.9 secs

     total energy              =     -45.61228941 Ry
     Harris-Foulkes estimate   =     -45.61228943 Ry
     estimated scf accuracy    <       0.00000006 Ry

     iteration #  5     ecut=    30.00 Ry     beta= 0.30
     Davidson diagonalization with overlap
     ethr =  3.78E-10,  avg # of iterations =  1.0

     total cpu time spent up to now is        6.0 secs

     total energy              =     -45.61228940 Ry
     Harris-Foulkes estimate   =     -45.61228941 Ry
     estimated scf accuracy    <       0.00000002 Ry

     iteration #  6     ecut=    30.00 Ry     beta= 0.30
     Davidson diagonalization with overlap
     ethr =  1.39E-10,  avg # of iterations =  2.0

     total cpu time spent up to now is        6.1 secs

     total energy              =     -45.61228940 Ry
     Harris-Foulkes estimate   =     -45.61228940 Ry
     estimated scf accuracy    <          1.2E-09 Ry

     iteration #  7     ecut=    30.00 Ry     beta= 0.30
     Davidson diagonalization with overlap
     ethr =  7.78E-12,  avg # of iterations =  1.0

     total cpu time spent up to now is        6.1 secs

     total energy              =     -45.61228940 Ry
     Harris-Foulkes estimate   =     -45.61228940 Ry
     estimated scf accuracy    <          2.4E-10 Ry

     iteration #  8     ecut=    30.00 Ry     beta= 0.30
     Davidson diagonalization with overlap
     ethr =  1.51E-12,  avg # of iterations =  2.0

     total cpu time spent up to now is        6.2 secs

     End of self-consistent calculation

          k = 0.1254 0.2171 0.0964 (   626 PWs)   bands (ev):

   -10.9715 -10.6877   0.4750   1.3654   1.4128   2.1278   2.4352   2.4687
    14.4543  15.6456  16.0251  16.8015

     occupation numbers 
     1.0000   1.0000   1.0000   1.0000   1.0000   1.0000   1.0000   1.0000
     0.0000   0.0000   0.0000   0.0000

          k = 0.1254 0.5067 0.0964 (   635 PWs)   bands (ev):

    -7.4122  -7.1959  -4.4940  -4.3286   0.1182   0.2045   4.4747   5.5561
     9.5249  10.2438  16.4494  16.8687

     occupation numbers 
     1.0000   1.0000   1.0000   1.0000   1.0000   1.0000   1.0000   1.0000
     0.0000   0.0000   0.0000   0.0000

          k = 0.1254-0.3619 0.0964 (   638 PWs)   bands (ev):

    -9.5106  -9.2519  -1.4601  -1.3440   0.8936   0.9663   2.2006   3.7161
    12.5116  13.1333  16.0953  16.8281

     occupation numbers 
     1.0000   1.0000   1.0000   1.0000   1.0000   1.0000   1.0000   1.0000
     0.0000   0.0000   0.0000   0.0000

          k = 0.1254-0.0724 0.0964 (   616 PWs)   bands (ev):

   -11.7134 -11.4167  -0.4170   1.2893   3.1631   3.2151   3.8417   3.8803
    13.6053  15.9790  16.1243  17.4424

     occupation numbers 
     1.0000   1.0000   1.0000   1.0000   1.0000   1.0000   1.0000   1.0000
     0.0000   0.0000   0.0000   0.0000

          k = 0.3761 0.6514 0.0964 (   638 PWs)   bands (ev):

    -5.7703  -5.6636  -4.8672  -4.8210  -2.2122  -2.1043   6.1875   6.7969
     8.5548   8.7175  18.3785  18.5396

     occupation numbers 
     1.0000   1.0000   1.0000   1.0000   1.0000   1.0000   1.0007   0.9993
     0.0000   0.0000   0.0000   0.0000

          k = 0.3761-0.2171 0.0964 (   632 PWs)   bands (ev):

    -8.7930  -8.5471  -3.1787  -3.0230   1.5065   1.5653   2.9961   4.3908
    10.9825  11.8784  15.0978  15.4405

     occupation numbers 
     1.0000   1.0000   1.0000   1.0000   1.0000   1.0000   1.0000   1.0000
     0.0000   0.0000   0.0000   0.0000

     the Fermi energy is     7.0470 ev

!    total energy              =     -45.61228940 Ry
     Harris-Foulkes estimate   =     -45.61228940 Ry
     estimated scf accuracy    <          6.1E-13 Ry

     The total energy is the sum of the following terms:

     one-electron contribution =      -7.58699895 Ry
     hartree contribution      =      12.04879714 Ry
     xc contribution           =     -14.07485786 Ry
     ewald contribution        =     -35.95930132 Ry
     Dispersion Correction     =      -0.04034486 Ry
     smearing contrib. (-TS)   =       0.00041645 Ry

     convergence has been achieved in   8 iterations

     Forces acting on atoms (cartesian axes, Ry/au):

     atom    1 type  1   force =    -0.00000000    0.00000000   -0.00000000
     atom    2 type  1   force =     0.00000000    0.00000000   -0.00000000
     atom    3 type  1   force =     0.00000000   -0.00000000    0.00000000
     atom    4 type  1   force =    -0.00000000    0.00000000   -0.00000000
     The non-local contrib.  to forces
     atom    1 type  1   force =    -0.00000000   -0.00000000   -0.00000000
     atom    2 type  1   force =    -0.00000000   -0.00000000   -0.00000000
     atom    3 type  1   force =     0.00000000   -0.00000000    0.00000000
     atom    4 type  1   force =     0.00000000    0.00000000   -0.00000000
     The ionic contribution  to forces
     atom    1 type  1   force =     0.00000857   -0.00000495   -0.00000000
     atom    2 type  1   force =    -0.00000861    0.00000497   -0.00000000
     atom    3 type  1   force =    -0.00000857    0.00000495    0.00000000
     atom    4 type  1   force =     0.00000861   -0.00000497    0.00000000
     The local contribution  to forces
     atom    1 type  1   force =     0.00000000    0.00000000    0.00000000
     atom    2 type  1   force =    -0.00000799    0.00000461    0.00000000
     atom    3 type  1   force =    -0.00000000   -0.00000000    0.00000000
     atom    4 type  1   force =     0.00000799   -0.00000461    0.00000000
     The core correction contribution to forces
     atom    1 type  1   force =     0.00000000    0.00000000    0.00000000
     atom    2 type  1   force =     0.00000000    0.00000000    0.00000000
     atom    3 type  1   force =     0.00000000    0.00000000    0.00000000
     atom    4 type  1   force =     0.00000000    0.00000000    0.00000000
     The Hubbard contrib.    to forces
     atom    1 type  1   force =     0.00000000    0.00000000    0.00000000
     atom    2 type  1   force =     0.00000000    0.00000000    0.00000000
     atom    3 type  1   force =     0.00000000    0.00000000    0.00000000
     atom    4 type  1   force =     0.00000000    0.00000000    0.00000000
     The SCF correction term to forces
     atom    1 type  1   force =    -0.00000000    0.00000000    0.00000000
     atom    2 type  1   force =     0.00000000   -0.00000000    0.00000000
     atom    3 type  1   force =     0.00000000   -0.00000000    0.00000000
     atom    4 type  1   force =    -0.00000000    0.00000000    0.00000000

     Dispersion contribution to forces:
     atom    1 type  1   force =     0.00000000   -0.00000000    0.00000000
     atom    2 type  1   force =    -0.00000000    0.00000000    0.00000000
     atom    3 type  1   force =    -0.00000000    0.00000000   -0.00000000
     atom    4 type  1   force =     0.00000000   -0.00000000   -0.00000000

     Total force =     0.000000     Total SCF correction =     0.000000

     Total Dispersion Force =     0.000000


     Computing stress (Cartesian axis) and pressure

          total   stress  (Ry/bohr**3)                   (kbar)     P=   -1.31
   0.00000251   0.00000000   0.00000000          0.37      0.00      0.00
   0.00000000   0.00000251   0.00000000          0.00      0.37      0.00
  -0.00000000  -0.00000000  -0.00003178         -0.00     -0.00     -4.68

     kinetic stress (kbar)  11146.35      0.00     -0.00
                                0.00  11146.35     -0.00
                               -0.00     -0.00  12924.31

     local   stress (kbar) -17016.39      0.01     -0.00
                                0.01 -17016.38      0.00
                               -0.00      0.00  24450.53

     nonloc. stress (kbar)   -477.89     -0.00      0.00
                               -0.00   -477.89      0.00
                                0.00      0.00   -477.73

     hartree stress (kbar)   6776.15     -0.00      0.00
                               -0.00   6776.15      0.00
                                0.00      0.00  -5708.58

     exc-cor stress (kbar)  -2817.54     -0.00      0.00
                               -0.00  -2817.54     -0.00
                                0.00     -0.00  -2912.66

     corecor stress (kbar)      0.00      0.00      0.00
                                0.00      0.00      0.00
                                0.00      0.00      0.00

     ewald   stress (kbar)   2406.50     -0.03      0.00
                               -0.03   2406.47     -0.00
                                0.00     -0.00 -28222.34

     hubbard stress (kbar)      0.00      0.00      0.00
                                0.00      0.00      0.00
                                0.00      0.00      0.00

     london  stress (kbar)    -16.80      0.00      0.00
                                0.00    -16.80     -0.00
                                0.00     -0.00    -58.21

     DFT-D3  stress (kbar)      0.00      0.00      0.00
                                0.00      0.00      0.00
                                0.00      0.00      0.00

     XDM     stress (kbar)      0.00      0.00      0.00
                                0.00      0.00      0.00
[...]
         3           C   tau(   3) = ( -0.0000000  1.0000000  0.2500000  )
         4           C   tau(   4) = (  0.3333330  0.6666670  0.2500000  )

     number of k points=     6  Marzari-Vanderbilt smearing, width (Ry)=  0.0200
                       cart. coord. in units 2pi/alat
        k(    1) = (   0.1253711   0.2171492   0.0973026), wk =   0.2500000
        k(    2) = (   0.1253711   0.5066814   0.0973026), wk =   0.5000000
        k(    3) = (   0.1253711  -0.3619153   0.0973026), wk =   0.5000000
        k(    4) = (   0.1253711  -0.0723831   0.0973026), wk =   0.2500000
        k(    5) = (   0.3761134   0.6514475   0.0973026), wk =   0.2500000
        k(    6) = (   0.3761134  -0.2171492   0.0973026), wk =   0.2500000

                       cryst. coord.
        k(    1) = (   0.1250000   0.1250000   0.2500000), wk =   0.2500000
        k(    2) = (   0.1250000   0.3750000   0.2500000), wk =   0.5000000
        k(    3) = (   0.1250000  -0.3750000   0.2500000), wk =   0.5000000
        k(    4) = (   0.1250000  -0.1250000   0.2500000), wk =   0.2500000
        k(    5) = (   0.3750000   0.3750000   0.2500000), wk =   0.2500000
        k(    6) = (   0.3750000  -0.3750000   0.2500000), wk =   0.2500000

     Dense  grid:    14159 G-vectors     FFT dimensions: (  24,  24,  60)

     Smooth grid:     4943 G-vectors     FFT dimensions: (  18,  18,  48)

     Dynamical RAM for                 wfc:       0.06 MB

     Dynamical RAM for     wfc (w. buffer):       0.40 MB

     Dynamical RAM for           str. fact:       0.11 MB

     Dynamical RAM for           local pot:       0.05 MB

     Dynamical RAM for          nlocal pot:       0.15 MB

     Dynamical RAM for                qrad:       0.53 MB

     Dynamical RAM for          rho,v,vnew:       0.72 MB

     Dynamical RAM for               rhoin:       0.24 MB

     Dynamical RAM for            rho*nmix:       1.73 MB

     Dynamical RAM for           G-vectors:       0.42 MB

     Dynamical RAM for          h,s,v(r/c):       0.11 MB

     Dynamical RAM for          <psi|beta>:       0.01 MB

     Dynamical RAM for                 psi:       0.23 MB

     Dynamical RAM for                hpsi:       0.23 MB

     Dynamical RAM for                spsi:       0.23 MB

     Dynamical RAM for      wfcinit/wfcrot:       0.16 MB

     Dynamical RAM for           addusdens:       5.08 MB

     Dynamical RAM for          addusforce:       5.78 MB

     Dynamical RAM for         addusstress:       5.40 MB

     Estimated static dynamical RAM per process >       5.23 MB

     Estimated max dynamical RAM per process >      11.01 MB

     Estimated total dynamical RAM >      22.02 MB

     Initial potential from superposition of free atoms

     starting charge   15.99979, renormalised to   16.00000
     Starting wfcs are   16 randomized atomic wfcs

     total cpu time spent up to now is       11.7 secs

     Self-consistent Calculation

     iteration #  1     ecut=    30.00 Ry     beta= 0.30
     Davidson diagonalization with overlap
     ethr =  1.00E-06,  avg # of iterations = 10.7

     total cpu time spent up to now is       12.0 secs

     total energy              =     -45.65514204 Ry
     Harris-Foulkes estimate   =     -45.78092927 Ry
     estimated scf accuracy    <       0.38786571 Ry

     iteration #  2     ecut=    30.00 Ry     beta= 0.30
     Davidson diagonalization with overlap
     ethr =  2.42E-03,  avg # of iterations =  1.0

     total cpu time spent up to now is       12.1 secs

     total energy              =     -45.59313457 Ry
     Harris-Foulkes estimate   =     -45.66481117 Ry
     estimated scf accuracy    <       0.13186631 Ry

     iteration #  3     ecut=    30.00 Ry     beta= 0.30
     Davidson diagonalization with overlap
     ethr =  8.24E-04,  avg # of iterations =  2.5

     total cpu time spent up to now is       12.1 secs

     total energy              =     -45.61208382 Ry
     Harris-Foulkes estimate   =     -45.61212251 Ry
     estimated scf accuracy    <       0.00184760 Ry

     iteration #  4     ecut=    30.00 Ry     beta= 0.30
     Davidson diagonalization with overlap
     ethr =  1.15E-05,  avg # of iterations =  2.7

     total cpu time spent up to now is       12.2 secs

     total energy              =     -45.61226311 Ry
     Harris-Foulkes estimate   =     -45.61235079 Ry
     estimated scf accuracy    <       0.00027232 Ry

     iteration #  5     ecut=    30.00 Ry     beta= 0.30
     Davidson diagonalization with overlap
     ethr =  1.70E-06,  avg # of iterations =  2.3

     total cpu time spent up to now is       12.2 secs

     total energy              =     -45.61229816 Ry
     Harris-Foulkes estimate   =     -45.61229455 Ry
     estimated scf accuracy    <       0.00000171 Ry

     iteration #  6     ecut=    30.00 Ry     beta= 0.30
     Davidson diagonalization with overlap
     ethr =  1.07E-08,  avg # of iterations =  2.5

     total cpu time spent up to now is       12.3 secs

     total energy              =     -45.61229908 Ry
     Harris-Foulkes estimate   =     -45.61229897 Ry
     estimated scf accuracy    <       0.00000146 Ry

     iteration #  7     ecut=    30.00 Ry     beta= 0.30
     Davidson diagonalization with overlap
     ethr =  9.15E-09,  avg # of iterations =  1.0

     total cpu time spent up to now is       12.4 secs

     total energy              =     -45.61229920 Ry
     Harris-Foulkes estimate   =     -45.61229911 Ry
     estimated scf accuracy    <       0.00000037 Ry

     iteration #  8     ecut=    30.00 Ry     beta= 0.30
     Davidson diagonalization with overlap
     ethr =  2.33E-09,  avg # of iterations =  1.0

     total cpu time spent up to now is       12.4 secs

     total energy              =     -45.61229931 Ry
     Harris-Foulkes estimate   =     -45.61229923 Ry
     estimated scf accuracy    <          1.4E-09 Ry

     iteration #  9     ecut=    30.00 Ry     beta= 0.30
     Davidson diagonalization with overlap
     ethr =  8.71E-12,  avg # of iterations =  2.8

     total cpu time spent up to now is       12.5 secs

     total energy              =     -45.61229934 Ry
     Harris-Foulkes estimate   =     -45.61229931 Ry
     estimated scf accuracy    <          1.7E-09 Ry

     iteration # 10     ecut=    30.00 Ry     beta= 0.30
     Davidson diagonalization with overlap
     ethr =  8.71E-12,  avg # of iterations =  1.0

     total cpu time spent up to now is       12.6 secs

     total energy              =     -45.61229936 Ry
     Harris-Foulkes estimate   =     -45.61229934 Ry
     estimated scf accuracy    <          5.9E-10 Ry

     iteration # 11     ecut=    30.00 Ry     beta= 0.30
     Davidson diagonalization with overlap
     ethr =  3.69E-12,  avg # of iterations =  2.0

     total cpu time spent up to now is       12.6 secs

     total energy              =     -45.61229937 Ry
     Harris-Foulkes estimate   =     -45.61229936 Ry
     estimated scf accuracy    <          7.7E-10 Ry

     iteration # 12     ecut=    30.00 Ry     beta= 0.30
     Davidson diagonalization with overlap
     ethr =  3.69E-12,  avg # of iterations =  1.0

     total cpu time spent up to now is       12.7 secs

     total energy              =     -45.61229938 Ry
     Harris-Foulkes estimate   =     -45.61229937 Ry
     estimated scf accuracy    <          4.9E-10 Ry

     iteration # 13     ecut=    30.00 Ry     beta= 0.30
     Davidson diagonalization with overlap
     ethr =  3.08E-12,  avg # of iterations =  1.0

     total cpu time spent up to now is       12.7 secs

     total energy              =     -45.61229938 Ry
     Harris-Foulkes estimate   =     -45.61229938 Ry
     estimated scf accuracy    <          3.2E-10 Ry

     iteration # 14     ecut=    30.00 Ry     beta= 0.30
     Davidson diagonalization with overlap
     ethr =  2.02E-12,  avg # of iterations =  1.0

     total cpu time spent up to now is       12.8 secs

     total energy              =     -45.61229938 Ry
     Harris-Foulkes estimate   =     -45.61229938 Ry
     estimated scf accuracy    <          1.5E-10 Ry

     iteration # 15     ecut=    30.00 Ry     beta= 0.30
     Davidson diagonalization with overlap
     ethr =  9.25E-13,  avg # of iterations =  1.2

     total cpu time spent up to now is       12.8 secs

     total energy              =     -45.61229938 Ry
     Harris-Foulkes estimate   =     -45.61229938 Ry
     estimated scf accuracy    <          1.4E-11 Ry

     iteration # 16     ecut=    30.00 Ry     beta= 0.30
     Davidson diagonalization with overlap
     ethr =  1.00E-13,  avg # of iterations =  2.0

     total cpu time spent up to now is       12.9 secs

     End of self-consistent calculation

          k = 0.1254 0.2171 0.0973 (   617 PWs)   bands (ev):

   -10.8711 -10.5671   0.5526   1.4758   1.5272   2.2802   2.5464   2.5828
    14.6797  15.7419  16.1443  16.9145

     occupation numbers 
     1.0000   1.0000   1.0000   1.0000   1.0000   1.0000   1.0000   1.0000
     0.0000   0.0000   0.0000   0.0000

          k = 0.1254 0.5067 0.0973 (   624 PWs)   bands (ev):

    -7.3091  -7.0768  -4.3888  -4.2108   0.2267   0.3203   4.5588   5.6906
     9.6239  10.3739  16.5492  16.9940

     occupation numbers 
     1.0000   1.0000   1.0000   1.0000   1.0000   1.0000   1.0000   1.0000
     0.0000   0.0000   0.0000   0.0000

          k = 0.1254-0.3619 0.0973 (   624 PWs)   bands (ev):

    -9.4092  -9.1319  -1.3527  -1.2274   1.0029   1.0816   2.2797   3.8648
    12.6050  13.2589  16.2999  16.9337

     occupation numbers 
     1.0000   1.0000   1.0000   1.0000   1.0000   1.0000   1.0000   1.0000
     0.0000   0.0000   0.0000   0.0000

          k = 0.1254-0.0724 0.0973 (   601 PWs)   bands (ev):

   -11.6135 -11.2959  -0.3400   1.4431   3.2736   3.3302   3.9528   3.9949
    13.8380  16.0882  16.2425  17.5537

     occupation numbers 
     1.0000   1.0000   1.0000   1.0000   1.0000   1.0000   1.0000   1.0000
     0.0000   0.0000   0.0000   0.0000

          k = 0.3761 0.6514 0.0973 (   630 PWs)   bands (ev):

    -5.6639  -5.5491  -4.7564  -4.7069  -2.1048  -1.9884   6.2751   6.9135
     8.6655   8.8439  18.4944  18.6617

     occupation numbers 
     1.0000   1.0000   1.0000   1.0000   1.0000   1.0000   1.0004   0.9996
     0.0000   0.0000   0.0000   0.0000

          k = 0.3761-0.2171 0.0973 (   620 PWs)   bands (ev):

    -8.6911  -8.4273  -3.0730  -2.9053   1.6164   1.6804   3.0766   4.5358
    11.0737  12.0120  15.1990  15.5665

     occupation numbers 
     1.0000   1.0000   1.0000   1.0000   1.0000   1.0000   1.0000   1.0000
     0.0000   0.0000   0.0000   0.0000

     the Fermi energy is     7.1639 ev

!    total energy              =     -45.61229938 Ry
     Harris-Foulkes estimate   =     -45.61229938 Ry
     estimated scf accuracy    <          2.3E-14 Ry

     The total energy is the sum of the following terms:

     one-electron contribution =      -6.90806239 Ry
     hartree contribution      =      11.77665709 Ry
     xc contribution           =     -14.07715203 Ry
     ewald contribution        =     -36.36296384 Ry
     Dispersion Correction     =      -0.04119131 Ry
     smearing contrib. (-TS)   =       0.00041310 Ry

     convergence has been achieved in  16 iterations

     Forces acting on atoms (cartesian axes, Ry/au):

     atom    1 type  1   force =     0.00000000    0.00000000   -0.00000000
     atom    2 type  1   force =     0.00000000    0.00000000    0.00000000
     atom    3 type  1   force =    -0.00000000   -0.00000000    0.00000000
     atom    4 type  1   force =     0.00000000    0.00000000    0.00000000
     The non-local contrib.  to forces
     atom    1 type  1   force =    -0.00000000    0.00000000   -0.00000000
     atom    2 type  1   force =     0.00000000    0.00000000   -0.00000000
     atom    3 type  1   force =     0.00000000   -0.00000000   -0.00000000
     atom    4 type  1   force =    -0.00000000   -0.00000000    0.00000000
     The ionic contribution  to forces
     atom    1 type  1   force =     0.00000857   -0.00000495   -0.00000000
     atom    2 type  1   force =    -0.00000861    0.00000497   -0.00000000
     atom    3 type  1   force =    -0.00000857    0.00000495    0.00000000
     atom    4 type  1   force =     0.00000861   -0.00000497    0.00000000
     The local contribution  to forces
     atom    1 type  1   force =    -0.00000000    0.00000000    0.00000000
     atom    2 type  1   force =    -0.00000799    0.00000461    0.00000000
     atom    3 type  1   force =     0.00000000   -0.00000000    0.00000000
     atom    4 type  1   force =     0.00000799   -0.00000461    0.00000000
     The core correction contribution to forces
     atom    1 type  1   force =     0.00000000    0.00000000    0.00000000
     atom    2 type  1   force =     0.00000000    0.00000000    0.00000000
     atom    3 type  1   force =     0.00000000    0.00000000    0.00000000
     atom    4 type  1   force =     0.00000000    0.00000000    0.00000000
     The Hubbard contrib.    to forces
     atom    1 type  1   force =     0.00000000    0.00000000    0.00000000
     atom    2 type  1   force =     0.00000000    0.00000000    0.00000000
     atom    3 type  1   force =     0.00000000    0.00000000    0.00000000
     atom    4 type  1   force =     0.00000000    0.00000000    0.00000000
     The SCF correction term to forces
     atom    1 type  1   force =    -0.00000000    0.00000000    0.00000000
     atom    2 type  1   force =     0.00000000   -0.00000000    0.00000000
     atom    3 type  1   force =     0.00000000   -0.00000000   -0.00000000
     atom    4 type  1   force =    -0.00000000    0.00000000   -0.00000000

     Dispersion contribution to forces:
     atom    1 type  1   force =     0.00000000   -0.00000000    0.00000000
     atom    2 type  1   force =    -0.00000000    0.00000000    0.00000000
     atom    3 type  1   force =    -0.00000000    0.00000000   -0.00000000
     atom    4 type  1   force =     0.00000000   -0.00000000   -0.00000000

     Total force =     0.000000     Total SCF correction =     0.000000

     Total Dispersion Force =     0.000000


     Computing stress (Cartesian axis) and pressure

          total   stress  (Ry/bohr**3)                   (kbar)     P=   -0.31
  -0.00000171  -0.00000000  -0.00000000         -0.25     -0.00     -0.00
  -0.00000000  -0.00000171   0.00000000         -0.00     -0.25      0.00
  -0.00000000  -0.00000000  -0.00000298         -0.00     -0.00     -0.44

     kinetic stress (kbar)  11253.51      0.00      0.00
                                0.00  11253.51     -0.00
                                0.00      0.00  13051.79

     local   stress (kbar) -16736.98      0.01     -0.00
                                0.01 -16736.96      0.00
                               -0.00      0.00  24244.27

     nonloc. stress (kbar)   -482.51     -0.00     -0.00
                               -0.00   -482.51     -0.00
                               -0.00     -0.00   -482.80

     hartree stress (kbar)   6662.12     -0.00     -0.00
                               -0.00   6662.12      0.00
                               -0.00      0.00  -5584.93

     exc-cor stress (kbar)  -2844.94     -0.00     -0.00
                               -0.00  -2844.94      0.00
                               -0.00      0.00  -2940.08

     corecor stress (kbar)      0.00      0.00      0.00
                                0.00      0.00      0.00
                                0.00      0.00      0.00

     ewald   stress (kbar)   2166.08     -0.03     -0.00
                               -0.03   2166.05     -0.00
                               -0.00     -0.00 -28228.94

     hubbard stress (kbar)      0.00      0.00      0.00
                                0.00      0.00      0.00
                                0.00      0.00      0.00

     london  stress (kbar)    -17.52      0.00      0.00
                                0.00    -17.52      0.00
                                0.00      0.00    -59.74

     DFT-D3  stress (kbar)      0.00      0.00      0.00
                                0.00      0.00      0.00
                                0.00      0.00      0.00

     XDM     stress (kbar)      0.00      0.00      0.00
                                0.00      0.00      0.00
                                0.00      0.00      0.00

     dft-nl  stress (kbar)      0.00      0.00      0.00
                                0.00      0.00      0.00
                                0.00      0.00      0.00

     TS-vdW  stress (kbar)      0.00      0.00      0.00
                                0.00      0.00      0.00
                                0.00      0.00      0.00



     Writing output data file graphite.save/
 
     init_run     :      0.30s CPU      0.31s WALL (       2 calls)
     electrons    :      7.66s CPU      7.81s WALL (      10 calls)
     update_pot   :      0.67s CPU      0.68s WALL (       8 calls)
     forces       :      1.76s CPU      1.78s WALL (      10 calls)
     stress       :      2.60s CPU      2.60s WALL (      10 calls)

     Called by init_run:
     wfcinit      :      0.04s CPU      0.04s WALL (       2 calls)
     wfcinit:atom :      0.00s CPU      0.00s WALL (      12 calls)
     wfcinit:wfcr :      0.04s CPU      0.04s WALL (      12 calls)
     potinit      :      0.06s CPU      0.06s WALL (       2 calls)
     hinit0       :      0.14s CPU      0.13s WALL (       2 calls)

     Called by electrons:
     c_bands      :      3.67s CPU      3.79s WALL (      95 calls)
     sum_band     :      1.08s CPU      1.12s WALL (      95 calls)
     v_of_rho     :      0.78s CPU      0.77s WALL (     101 calls)
     v_h          :      0.03s CPU      0.04s WALL (     101 calls)
     v_xc         :      0.75s CPU      0.74s WALL (     101 calls)
     newd         :      0.29s CPU      0.30s WALL (     101 calls)
     mix_rho      :      0.09s CPU      0.08s WALL (      95 calls)

     Called by c_bands:
     init_us_2    :      0.10s CPU      0.09s WALL (    1272 calls)
     cegterg      :      3.44s CPU      3.55s WALL (     570 calls)

     Called by sum_band:
     sum_band:bec :      0.01s CPU      0.00s WALL (     570 calls)
     addusdens    :      0.33s CPU      0.33s WALL (      95 calls)

     Called by *egterg:
     h_psi        :      2.78s CPU      2.95s WALL (    1700 calls)
     s_psi        :      0.03s CPU      0.05s WALL (    1700 calls)
     g_psi        :      0.04s CPU      0.02s WALL (    1118 calls)
     cdiaghg      :      0.35s CPU      0.34s WALL (    1616 calls)
     cegterg:over :      0.11s CPU      0.08s WALL (    1118 calls)
     cegterg:upda :      0.04s CPU      0.04s WALL (    1118 calls)
     cegterg:last :      0.05s CPU      0.02s WALL (     580 calls)

     Called by h_psi:
     h_psi:pot    :      2.78s CPU      2.94s WALL (    1700 calls)
     h_psi:calbec :      0.05s CPU      0.07s WALL (    1700 calls)
     vloc_psi     :      2.66s CPU      2.81s WALL (    1700 calls)
     add_vuspsi   :      0.06s CPU      0.05s WALL (    1700 calls)

     General routines
     calbec       :      0.12s CPU      0.11s WALL (    2570 calls)
     fft          :      0.41s CPU      0.41s WALL (    1385 calls)
     ffts         :      0.03s CPU      0.03s WALL (     196 calls)
     fftw         :      2.92s CPU      3.08s WALL (   40776 calls)
     interpolate  :      0.05s CPU      0.05s WALL (     101 calls)
 
     Parallel routines
     fft_scatt_xy :      0.50s CPU      0.49s WALL (   42357 calls)
     fft_scatt_yz :      0.50s CPU      0.54s WALL (   42357 calls)
 
     PWSCF        :     13.10s CPU     13.28s WALL

 
   This run was terminated on:  18:49:55   3Sep2019            

=------------------------------------------------------------------------------=
   JOB DONE.
=------------------------------------------------------------------------------=
