
     Program PWSCF v.6.4.1 starts on  3Sep2019 at 18:28:12 

     This program is part of the open-source Quantum ESPRESSO suite
     for quantum simulation of materials; please cite
         "P. Giannozzi et al., J. Phys.:Condens. Matter 21 395502 (2009);
         "P. Giannozzi et al., J. Phys.:Condens. Matter 29 465901 (2017);
          URL http://www.quantum-espresso.org", 
     in publications or presentations arising from this work. More details at
     http://www.quantum-espresso.org/quote

     Parallel version (MPI), running on     2 processors

     MPI processes distributed on     1 nodes
     R & G space division:  proc/nbgrp/npool/nimage =       2
     Waiting for input...
     Reading input from standard input

     Current dimensions of program PWSCF are:
     Max number of different atomic species (ntypx) = 10
     Max number of k-points (npk) =  40000
     Max angular momentum in pseudopotentials (lmaxx) =  3

     IMPORTANT: XC functional enforced from input :
     Exchange-correlation      = VDW-DF ( 1  4  4  0 1 0)
     Any further DFT definition will be discarded
     Please, verify this is what you really want

               file C.pbe-rrkjus.UPF: wavefunction(s)  2S 2P renormalized

     Subspace diagonalization in iterative solution of the eigenvalue problem:
     a serial algorithm will be used

 
     Parallelization info
     --------------------
     sticks:   dense  smooth     PW     G-vecs:    dense   smooth      PW
     Min         180      93     30                 7166     2525     520
     Max         181      94     31                 7173     2528     525
     Sum         361     187     61                14339     5053    1045
 


     bravais-lattice index     =            4
     lattice parameter (alat)  =       4.6601  a.u.
     unit-cell volume          =     227.8448 (a.u.)^3
     number of atoms/cell      =            4
     number of atomic types    =            1
     number of electrons       =        16.00
     number of Kohn-Sham states=           12
     kinetic-energy cutoff     =      30.0000  Ry
     charge density cutoff     =     240.0000  Ry
     convergence threshold     =      1.0E-09
     mixing beta               =       0.3000
     number of iterations used =            8  plain     mixing
     Exchange-correlation      = VDW-DF ( 1  4  4  0 1 0)

     celldm(1)=   4.660065  celldm(2)=   0.000000  celldm(3)=   2.599757
     celldm(4)=   0.000000  celldm(5)=   0.000000  celldm(6)=   0.000000

     crystal axes: (cart. coord. in units of alat)
               a(1) = (   1.000000   0.000000   0.000000 )  
               a(2) = (  -0.500000   0.866025   0.000000 )  
               a(3) = (   0.000000   0.000000   2.599757 )  

     reciprocal axes: (cart. coord. in units 2 pi/alat)
               b(1) = (  1.000000  0.577350  0.000000 )  
               b(2) = (  0.000000  1.154701  0.000000 )  
               b(3) = (  0.000000  0.000000  0.384651 )  


     PseudoPot. # 1 for C  read from file:
     ../../../pseudo/C.pbe-rrkjus.UPF
     MD5 check sum: 00fb224312de0c5b6853bd333518df6f
     Pseudo is Ultrasoft, Zval =  4.0
     Generated by new atomic code, or converted to UPF format
     Using radial grid of  627 points,  4 beta functions with: 
                l(1) =   0
                l(2) =   0
                l(3) =   1
                l(4) =   1
     Q(r) pseudized with 0 coefficients 


     vdW kernel table read from file vdW_kernel_table
     MD5 check sum: 13d05b472ba19330c194d8f4c88b635e

     atomic species   valence    mass     pseudopotential
        C              4.00    12.01100     C ( 1.00)

     24 Sym. Ops., with inversion, found (12 have fractional translation)


                                    s                        frac. trans.

      isym =  1     identity                                     

 cryst.   s( 1) = (     1          0          0      )
                  (     0          1          0      )
                  (     0          0          1      )

 cart.    s( 1) = (  1.0000000  0.0000000  0.0000000 )
                  (  0.0000000  1.0000000  0.0000000 )
                  (  0.0000000  0.0000000  1.0000000 )


      isym =  2     180 deg rotation - cart. axis [0,0,1]        

 cryst.   s( 2) = (    -1          0          0      )    f =( -0.0000000 )
                  (     0         -1          0      )       ( -0.0000000 )
                  (     0          0          1      )       (  0.5000000 )

 cart.    s( 2) = ( -1.0000000  0.0000000  0.0000000 )    f =(  0.0000000 )
                  (  0.0000000 -1.0000000  0.0000000 )       ( -0.0000000 )
                  (  0.0000000  0.0000000  1.0000000 )       (  1.2998783 )


      isym =  3     180 deg rotation - cart. axis [0,1,0]        

 cryst.   s( 3) = (    -1          0          0      )    f =( -0.0000000 )
                  (     1          1          0      )       (  0.0000000 )
                  (     0          0         -1      )       (  0.5000000 )

 cart.    s( 3) = ( -1.0000000  0.0000000  0.0000000 )    f =( -0.0000000 )
                  (  0.0000000  1.0000000  0.0000000 )       (  0.0000000 )
                  (  0.0000000  0.0000000 -1.0000000 )       (  1.2998783 )


      isym =  4     180 deg rotation - cart. axis [1,0,0]        

 cryst.   s( 4) = (     1          0          0      )
                  (    -1         -1          0      )
                  (     0          0         -1      )

 cart.    s( 4) = (  1.0000000  0.0000000  0.0000000 )
                  (  0.0000000 -1.0000000  0.0000000 )
                  (  0.0000000  0.0000000 -1.0000000 )


      isym =  5      60 deg rotation - cryst. axis [0,0,1]       

 cryst.   s( 5) = (     1          1          0      )    f =(  0.0000000 )
                  (    -1          0          0      )       (  0.0000000 )
                  (     0          0          1      )       (  0.5000000 )

 cart.    s( 5) = (  0.5000000 -0.8660254  0.0000000 )    f =(  0.0000000 )
                  (  0.8660254  0.5000000  0.0000000 )       (  0.0000000 )
                  (  0.0000000  0.0000000  1.0000000 )       (  1.2998783 )


      isym =  6      60 deg rotation - cryst. axis [0,0,-1]      

 cryst.   s( 6) = (     0         -1          0      )    f =(  0.0000000 )
                  (     1          1          0      )       ( -0.0000000 )
                  (     0          0          1      )       (  0.5000000 )

 cart.    s( 6) = (  0.5000000  0.8660254  0.0000000 )    f =(  0.0000000 )
                  ( -0.8660254  0.5000000  0.0000000 )       ( -0.0000000 )
                  (  0.0000000  0.0000000  1.0000000 )       (  1.2998783 )


      isym =  7     120 deg rotation - cryst. axis [0,0,1]       

 cryst.   s( 7) = (     0          1          0      )
                  (    -1         -1          0      )
                  (     0          0          1      )

 cart.    s( 7) = ( -0.5000000 -0.8660254  0.0000000 )
                  (  0.8660254 -0.5000000  0.0000000 )
                  (  0.0000000  0.0000000  1.0000000 )


      isym =  8     120 deg rotation - cryst. axis [0,0,-1]      

 cryst.   s( 8) = (    -1         -1          0      )
                  (     1          0          0      )
                  (     0          0          1      )

 cart.    s( 8) = ( -0.5000000  0.8660254  0.0000000 )
                  ( -0.8660254 -0.5000000  0.0000000 )
                  (  0.0000000  0.0000000  1.0000000 )


      isym =  9     180 deg rotation - cryst. axis [1,-1,0]      

 cryst.   s( 9) = (     0         -1          0      )    f =( -0.0000000 )
                  (    -1          0          0      )       ( -0.0000000 )
                  (     0          0         -1      )       (  0.5000000 )

 cart.    s( 9) = (  0.5000000 -0.8660254  0.0000000 )    f =( -0.0000000 )
                  ( -0.8660254 -0.5000000  0.0000000 )       ( -0.0000000 )
                  (  0.0000000  0.0000000 -1.0000000 )       (  1.2998783 )


      isym = 10     180 deg rotation - cryst. axis [2,1,0]       

 cryst.   s(10) = (     1          1          0      )    f =(  0.0000000 )
                  (     0         -1          0      )       (  0.0000000 )
                  (     0          0         -1      )       (  0.5000000 )

 cart.    s(10) = (  0.5000000  0.8660254  0.0000000 )    f =(  0.0000000 )
                  (  0.8660254 -0.5000000  0.0000000 )       (  0.0000000 )
                  (  0.0000000  0.0000000 -1.0000000 )       (  1.2998783 )


      isym = 11     180 deg rotation - cryst. axis [0,1,0]       

 cryst.   s(11) = (    -1         -1          0      )
                  (     0          1          0      )
                  (     0          0         -1      )

 cart.    s(11) = ( -0.5000000 -0.8660254  0.0000000 )
                  ( -0.8660254  0.5000000  0.0000000 )
                  (  0.0000000  0.0000000 -1.0000000 )


      isym = 12     180 deg rotation - cryst. axis [1,1,0]       

 cryst.   s(12) = (     0          1          0      )
                  (     1          0          0      )
                  (     0          0         -1      )

 cart.    s(12) = ( -0.5000000  0.8660254  0.0000000 )
                  (  0.8660254  0.5000000  0.0000000 )
                  (  0.0000000  0.0000000 -1.0000000 )


      isym = 13     inversion                                    

 cryst.   s(13) = (    -1          0          0      )
                  (     0         -1          0      )
                  (     0          0         -1      )

 cart.    s(13) = ( -1.0000000  0.0000000  0.0000000 )
                  (  0.0000000 -1.0000000  0.0000000 )
                  (  0.0000000  0.0000000 -1.0000000 )


      isym = 14     inv. 180 deg rotation - cart. axis [0,0,1]   

 cryst.   s(14) = (     1          0          0      )    f =(  0.0000000 )
                  (     0          1          0      )       (  0.0000000 )
                  (     0          0         -1      )       (  0.5000000 )

 cart.    s(14) = (  1.0000000  0.0000000  0.0000000 )    f =(  0.0000000 )
                  (  0.0000000  1.0000000  0.0000000 )       (  0.0000000 )
                  (  0.0000000  0.0000000 -1.0000000 )       (  1.2998783 )


      isym = 15     inv. 180 deg rotation - cart. axis [0,1,0]   

 cryst.   s(15) = (     1          0          0      )    f =(  0.0000000 )
                  (    -1         -1          0      )       ( -0.0000000 )
                  (     0          0          1      )       (  0.5000000 )

 cart.    s(15) = (  1.0000000  0.0000000  0.0000000 )    f =(  0.0000000 )
                  (  0.0000000 -1.0000000  0.0000000 )       ( -0.0000000 )
                  (  0.0000000  0.0000000  1.0000000 )       (  1.2998783 )


      isym = 16     inv. 180 deg rotation - cart. axis [1,0,0]   

 cryst.   s(16) = (    -1          0          0      )
                  (     1          1          0      )
                  (     0          0          1      )

 cart.    s(16) = ( -1.0000000  0.0000000  0.0000000 )
                  (  0.0000000  1.0000000  0.0000000 )
                  (  0.0000000  0.0000000  1.0000000 )


      isym = 17     inv.  60 deg rotation - cryst. axis [0,0,1]  

 cryst.   s(17) = (    -1         -1          0      )    f =( -0.0000000 )
                  (     1          0          0      )       ( -0.0000000 )
                  (     0          0         -1      )       (  0.5000000 )

 cart.    s(17) = ( -0.5000000  0.8660254  0.0000000 )    f =(  0.0000000 )
                  ( -0.8660254 -0.5000000  0.0000000 )       ( -0.0000000 )
                  (  0.0000000  0.0000000 -1.0000000 )       (  1.2998783 )


      isym = 18     inv.  60 deg rotation - cryst. axis [0,0,-1] 

 cryst.   s(18) = (     0          1          0      )    f =( -0.0000000 )
                  (    -1         -1          0      )       (  0.0000000 )
                  (     0          0         -1      )       (  0.5000000 )

 cart.    s(18) = ( -0.5000000 -0.8660254  0.0000000 )    f =( -0.0000000 )
                  (  0.8660254 -0.5000000  0.0000000 )       (  0.0000000 )
                  (  0.0000000  0.0000000 -1.0000000 )       (  1.2998783 )


      isym = 19     inv. 120 deg rotation - cryst. axis [0,0,1]  

 cryst.   s(19) = (     0         -1          0      )
                  (     1          1          0      )
                  (     0          0         -1      )

 cart.    s(19) = (  0.5000000  0.8660254  0.0000000 )
                  ( -0.8660254  0.5000000  0.0000000 )
                  (  0.0000000  0.0000000 -1.0000000 )


      isym = 20     inv. 120 deg rotation - cryst. axis [0,0,-1] 

 cryst.   s(20) = (     1          1          0      )
                  (    -1          0          0      )
                  (     0          0         -1      )

 cart.    s(20) = (  0.5000000 -0.8660254  0.0000000 )
                  (  0.8660254  0.5000000  0.0000000 )
                  (  0.0000000  0.0000000 -1.0000000 )


      isym = 21     inv. 180 deg rotation - cryst. axis [1,-1,0] 

 cryst.   s(21) = (     0          1          0      )    f =(  0.0000000 )
                  (     1          0          0      )       (  0.0000000 )
                  (     0          0          1      )       (  0.5000000 )

 cart.    s(21) = ( -0.5000000  0.8660254  0.0000000 )    f =(  0.0000000 )
                  (  0.8660254  0.5000000  0.0000000 )       (  0.0000000 )
                  (  0.0000000  0.0000000  1.0000000 )       (  1.2998783 )


      isym = 22     inv. 180 deg rotation - cryst. axis [2,1,0]  

 cryst.   s(22) = (    -1         -1          0      )    f =( -0.0000000 )
                  (     0          1          0      )       ( -0.0000000 )
                  (     0          0          1      )       (  0.5000000 )

 cart.    s(22) = ( -0.5000000 -0.8660254  0.0000000 )    f =( -0.0000000 )
                  ( -0.8660254  0.5000000  0.0000000 )       ( -0.0000000 )
                  (  0.0000000  0.0000000  1.0000000 )       (  1.2998783 )


      isym = 23     inv. 180 deg rotation - cryst. axis [0,1,0]  

 cryst.   s(23) = (     1          1          0      )
                  (     0         -1          0      )
                  (     0          0          1      )

 cart.    s(23) = (  0.5000000  0.8660254  0.0000000 )
                  (  0.8660254 -0.5000000  0.0000000 )
                  (  0.0000000  0.0000000  1.0000000 )


      isym = 24     inv. 180 deg rotation - cryst. axis [1,1,0]  

 cryst.   s(24) = (     0         -1          0      )
                  (    -1          0          0      )
                  (     0          0          1      )

 cart.    s(24) = (  0.5000000 -0.8660254  0.0000000 )
                  ( -0.8660254 -0.5000000  0.0000000 )
                  (  0.0000000  0.0000000  1.0000000 )


     point group D_6h(6/mmm)
     there are 12 classes
     the character table:

       E     2C6   2C3   C2    3C2'  3C2'' i     2S3   2S6   s_h   3s_d  3s_v 
A_1g   1.00  1.00  1.00  1.00  1.00  1.00  1.00  1.00  1.00  1.00  1.00  1.00
A_2g   1.00  1.00  1.00  1.00 -1.00 -1.00  1.00  1.00  1.00  1.00 -1.00 -1.00
B_1g   1.00 -1.00  1.00 -1.00  1.00 -1.00  1.00 -1.00  1.00 -1.00  1.00 -1.00
B_2g   1.00 -1.00  1.00 -1.00 -1.00  1.00  1.00 -1.00  1.00 -1.00 -1.00  1.00
E_1g   2.00  1.00 -1.00 -2.00  0.00  0.00  2.00  1.00 -1.00 -2.00  0.00  0.00
E_2g   2.00 -1.00 -1.00  2.00  0.00  0.00  2.00 -1.00 -1.00  2.00  0.00  0.00
A_1u   1.00  1.00  1.00  1.00  1.00  1.00 -1.00 -1.00 -1.00 -1.00 -1.00 -1.00
A_2u   1.00  1.00  1.00  1.00 -1.00 -1.00 -1.00 -1.00 -1.00 -1.00  1.00  1.00
B_1u   1.00 -1.00  1.00 -1.00  1.00 -1.00 -1.00  1.00 -1.00  1.00 -1.00  1.00
B_2u   1.00 -1.00  1.00 -1.00 -1.00  1.00 -1.00  1.00 -1.00  1.00  1.00 -1.00
E_1u   2.00  1.00 -1.00 -2.00  0.00  0.00 -2.00 -1.00  1.00  2.00  0.00  0.00
E_2u   2.00 -1.00 -1.00  2.00  0.00  0.00 -2.00  1.00  1.00 -2.00  0.00  0.00

     the symmetry operations in each class and the name of the first element:

     E        1
          identity                                               
     2C6      5    6
           60 deg rotation - cryst. axis [0,0,1]                 
     2C3      7    8
          120 deg rotation - cryst. axis [0,0,1]                 
     C2       2
          180 deg rotation - cart. axis [0,0,1]                  
     3C2'     4   12   11
          180 deg rotation - cart. axis [1,0,0]                  
     3C2''    3    9   10
          180 deg rotation - cart. axis [0,1,0]                  
     i       13
          inversion                                              
     2S3     17   18
          inv.  60 deg rotation - cryst. axis [0,0,1]            
     2S6     19   20
          inv. 120 deg rotation - cryst. axis [0,0,1]            
     s_h     14
          inv. 180 deg rotation - cart. axis [0,0,1]             
     3s_d    16   24   23
          inv. 180 deg rotation - cart. axis [1,0,0]             
     3s_v    15   21   22
          inv. 180 deg rotation - cart. axis [0,1,0]             

   Cartesian axes

     site n.     atom                  positions (alat units)
         1           C   tau(   1) = (  -0.5000000   0.8660254   1.9498175  )
         2           C   tau(   2) = (   0.5000005   0.2886748   1.9498175  )
         3           C   tau(   3) = (  -0.5000000   0.8660254   0.6499392  )
         4           C   tau(   4) = (  -0.0000005   0.5773506   0.6499392  )

   Crystallographic axes

     site n.     atom                  positions (cryst. coord.)
         1           C   tau(   1) = (  0.0000000  1.0000000  0.7500000  )
         2           C   tau(   2) = (  0.6666670  0.3333330  0.7500000  )
         3           C   tau(   3) = (  0.0000000  1.0000000  0.2500000  )
         4           C   tau(   4) = (  0.3333330  0.6666670  0.2500000  )

     number of k points=     6  Marzari-Vanderbilt smearing, width (Ry)=  0.0200
                       cart. coord. in units 2pi/alat
        k(    1) = (   0.1250000   0.2165064   0.0961628), wk =   0.2500000
        k(    2) = (   0.1250000   0.5051815   0.0961628), wk =   0.5000000
        k(    3) = (   0.1250000  -0.3608439   0.0961628), wk =   0.5000000
        k(    4) = (   0.1250000  -0.0721688   0.0961628), wk =   0.2500000
        k(    5) = (   0.3750000   0.6495191   0.0961628), wk =   0.2500000
        k(    6) = (   0.3750000  -0.2165064   0.0961628), wk =   0.2500000

                       cryst. coord.
        k(    1) = (   0.1250000   0.1250000   0.2500000), wk =   0.2500000
        k(    2) = (   0.1250000   0.3750000   0.2500000), wk =   0.5000000
        k(    3) = (   0.1250000  -0.3750000   0.2500000), wk =   0.5000000
        k(    4) = (   0.1250000  -0.1250000   0.2500000), wk =   0.2500000
        k(    5) = (   0.3750000   0.3750000   0.2500000), wk =   0.2500000
        k(    6) = (   0.3750000  -0.3750000   0.2500000), wk =   0.2500000

     Dense  grid:    14339 G-vectors     FFT dimensions: (  24,  24,  60)

     Smooth grid:     5053 G-vectors     FFT dimensions: (  18,  18,  48)

     Dynamical RAM for                 wfc:       0.06 MB

     Dynamical RAM for     wfc (w. buffer):       0.41 MB

     Dynamical RAM for           str. fact:       0.11 MB

     Dynamical RAM for           local pot:       0.00 MB

     Dynamical RAM for          nlocal pot:       0.15 MB

     Dynamical RAM for                qrad:       0.26 MB

     Dynamical RAM for          rho,v,vnew:       0.72 MB

     Dynamical RAM for               rhoin:       0.24 MB

     Dynamical RAM for            rho*nmix:       1.75 MB

     Dynamical RAM for           G-vectors:       0.43 MB

     Dynamical RAM for          h,s,v(r/c):       0.11 MB

     Dynamical RAM for          <psi|beta>:       0.01 MB

     Dynamical RAM for                 psi:       0.23 MB

     Dynamical RAM for                hpsi:       0.23 MB

     Dynamical RAM for                spsi:       0.23 MB

     Dynamical RAM for      wfcinit/wfcrot:       0.16 MB

     Dynamical RAM for           addusdens:       5.14 MB

     Dynamical RAM for          addusforce:       5.86 MB

     Dynamical RAM for         addusstress:       5.47 MB

     Estimated static dynamical RAM per process >       4.96 MB

     Estimated max dynamical RAM per process >      10.82 MB

     Estimated total dynamical RAM >      21.63 MB

     Initial potential from superposition of free atoms

     starting charge   15.99979, renormalised to   16.00000


     %%%%%%%%%%%%%%%%%%%%%%%%%%%%%%%%%%%%%%%%%%%%%%%%%%%%%%%%%%%%%%%%%%%%%%%%
     %                                                                      %
     % You are using vdW-DF, which was implemented by the Thonhauser group. %
     % Please cite the following two papers that made this development      %
     % possible and the two reviews that describe the various versions:     %
     %                                                                      %
     %   T. Thonhauser et al., PRL 115, 136402 (2015).                      %
     %   T. Thonhauser et al., PRB 76, 125112 (2007).                       %
     %   K. Berland et al., Rep. Prog. Phys. 78, 066501 (2015).             %
     %   D.C. Langreth et al., J. Phys.: Condens. Matter 21, 084203 (2009). %
     %                                                                      %
     %                                                                      %
     % If you are calculating the stress with vdW-DF, please also cite:     %
     %                                                                      %
     %   R. Sabatini et al., J. Phys.: Condens. Matter 24, 424209 (2012).   %
     %                                                                      %
     %%%%%%%%%%%%%%%%%%%%%%%%%%%%%%%%%%%%%%%%%%%%%%%%%%%%%%%%%%%%%%%%%%%%%%%%


     Carrying out vdW-DF run using the following parameters:
     Nqs    =  20  Npoints =  1024  r_max =  100.000
     q_mesh =  0.00001000  0.04494208  0.09755937  0.15916263
               0.23128650  0.31572767  0.41458969  0.53033537
               0.66584808  0.82450364  1.01025438  1.22772762
               1.48234092  1.78043706  2.12944203  2.53805004
               3.01644009  3.57652955  4.23227104  5.00000000


     -----------------------------------------------
     Non-local corr. energy    =       0.11532865 Ry
     -----------------------------------------------

     Starting wfcs are   16 randomized atomic wfcs

     total cpu time spent up to now is        0.3 secs

     Self-consistent Calculation

     iteration #  1     ecut=    30.00 Ry     beta= 0.30
     Davidson diagonalization with overlap
     ethr =  1.00E-02,  avg # of iterations =  3.0


     -----------------------------------------------
     Non-local corr. energy    =       0.12857420 Ry
     -----------------------------------------------


     total cpu time spent up to now is        0.4 secs

     total energy              =     -45.91980486 Ry
     Harris-Foulkes estimate   =     -46.04919583 Ry
     estimated scf accuracy    <       0.42097918 Ry

     iteration #  2     ecut=    30.00 Ry     beta= 0.30
     Davidson diagonalization with overlap
     ethr =  2.63E-03,  avg # of iterations =  1.0


     -----------------------------------------------
     Non-local corr. energy    =       0.14879849 Ry
     -----------------------------------------------


     total cpu time spent up to now is        0.6 secs

     total energy              =     -45.85626573 Ry
     Harris-Foulkes estimate   =     -45.93080666 Ry
     estimated scf accuracy    <       0.14495755 Ry

     iteration #  3     ecut=    30.00 Ry     beta= 0.30
     Davidson diagonalization with overlap
     ethr =  9.06E-04,  avg # of iterations =  2.7


     -----------------------------------------------
     Non-local corr. energy    =       0.14683254 Ry
     -----------------------------------------------


     total cpu time spent up to now is        0.7 secs

     total energy              =     -45.87836473 Ry
     Harris-Foulkes estimate   =     -45.87788776 Ry
     estimated scf accuracy    <       0.00254216 Ry

     iteration #  4     ecut=    30.00 Ry     beta= 0.30
     Davidson diagonalization with overlap
     ethr =  1.59E-05,  avg # of iterations =  3.0


     -----------------------------------------------
     Non-local corr. energy    =       0.14835173 Ry
     -----------------------------------------------


     total cpu time spent up to now is        0.8 secs

     total energy              =     -45.87847685 Ry
     Harris-Foulkes estimate   =     -45.87879775 Ry
     estimated scf accuracy    <       0.00067885 Ry

     iteration #  5     ecut=    30.00 Ry     beta= 0.30
     Davidson diagonalization with overlap
     ethr =  4.24E-06,  avg # of iterations =  2.0


     -----------------------------------------------
     Non-local corr. energy    =       0.14840549 Ry
     -----------------------------------------------


     total cpu time spent up to now is        0.9 secs

     total energy              =     -45.87858323 Ry
     Harris-Foulkes estimate   =     -45.87857745 Ry
     estimated scf accuracy    <       0.00000194 Ry

     iteration #  6     ecut=    30.00 Ry     beta= 0.30
     Davidson diagonalization with overlap
     ethr =  1.21E-08,  avg # of iterations =  4.0


     -----------------------------------------------
     Non-local corr. energy    =       0.14840011 Ry
     -----------------------------------------------


     total cpu time spent up to now is        1.1 secs

     total energy              =     -45.87858540 Ry
     Harris-Foulkes estimate   =     -45.87858420 Ry
     estimated scf accuracy    <       0.00000078 Ry

     iteration #  7     ecut=    30.00 Ry     beta= 0.30
     Davidson diagonalization with overlap
     ethr =  4.90E-09,  avg # of iterations =  2.0


     -----------------------------------------------
     Non-local corr. energy    =       0.14840051 Ry
     -----------------------------------------------


     total cpu time spent up to now is        1.2 secs

     total energy              =     -45.87858588 Ry
     Harris-Foulkes estimate   =     -45.87858548 Ry
     estimated scf accuracy    <          1.8E-09 Ry

     iteration #  8     ecut=    30.00 Ry     beta= 0.30
     Davidson diagonalization with overlap
     ethr =  1.15E-11,  avg # of iterations =  3.0


     -----------------------------------------------
     Non-local corr. energy    =       0.14839789 Ry
     -----------------------------------------------


     total cpu time spent up to now is        1.3 secs

     End of self-consistent calculation

          k = 0.1250 0.2165 0.0962 (   626 PWs)   bands (ev):

   -11.0373 -10.7630   0.4565   1.1175   1.1634   2.0694   2.2113   2.2432
    14.4609  15.4279  15.8012  16.6793

     occupation numbers 
     1.0000   1.0000   1.0000   1.0000   1.0000   1.0000   1.0000   1.0000
     0.0000   0.0000   0.0000   0.0000

          k = 0.1250 0.5052 0.0962 (   635 PWs)   bands (ev):

    -7.5384  -7.3315  -4.6225  -4.4660  -0.0587   0.0233   4.3963   5.4465
     9.4191  10.1031  16.2975  16.7010

     occupation numbers 
     1.0000   1.0000   1.0000   1.0000   1.0000   1.0000   1.0000   1.0000
     0.0000   0.0000   0.0000   0.0000

          k = 0.1250-0.3608 0.0962 (   638 PWs)   bands (ev):

    -9.5969  -9.3475  -1.6544  -1.5442   0.7065   0.7748   2.1601   3.6363
    12.3468  12.9462  16.0709  16.6860

     occupation numbers 
     1.0000   1.0000   1.0000   1.0000   1.0000   1.0000   1.0000   1.0000
     0.0000   0.0000   0.0000   0.0000

          k = 0.1250-0.0722 0.0962 (   616 PWs)   bands (ev):

   -11.7694 -11.4826  -0.4249   1.2413   2.8924   2.9420   3.5650   3.6019
    13.6215  15.8420  15.9836  17.2513

     occupation numbers 
     1.0000   1.0000   1.0000   1.0000   1.0000   1.0000   1.0000   1.0000
     0.0000   0.0000   0.0000   0.0000

          k = 0.3750 0.6495 0.0962 (   638 PWs)   bands (ev):

    -5.9512  -5.8480  -4.9984  -4.9595  -2.3019  -2.2035   6.0807   6.6784
     8.4183   8.5912  18.4362  18.5524

     occupation numbers 
     1.0000   1.0000   1.0000   1.0000   1.0000   1.0000   1.0009   0.9991
     0.0000   0.0000   0.0000   0.0000

          k = 0.3750-0.2165 0.0962 (   632 PWs)   bands (ev):

    -8.8912  -8.6544  -3.3310  -3.1822   1.2879   1.3445   2.9430   4.2996
    10.8624  11.7202  14.9794  15.3103

     occupation numbers 
     1.0000   1.0000   1.0000   1.0000   1.0000   1.0000   1.0000   1.0000
     0.0000   0.0000   0.0000   0.0000

     the Fermi energy is     6.9284 ev

!    total energy              =     -45.87858627 Ry
     Harris-Foulkes estimate   =     -45.87858589 Ry
     estimated scf accuracy    <          6.4E-10 Ry

     The total energy is the sum of the following terms:

     one-electron contribution =      -7.79924276 Ry
     hartree contribution      =      12.20154491 Ry
     xc contribution           =     -14.40531127 Ry
     ewald contribution        =     -35.87599542 Ry
     smearing contrib. (-TS)   =       0.00041826 Ry

     convergence has been achieved in   8 iterations

     Forces acting on atoms (cartesian axes, Ry/au):

     atom    1 type  1   force =     0.00000000    0.00000000    0.00000000
     atom    2 type  1   force =     0.00000000    0.00000000    0.00000000
     atom    3 type  1   force =     0.00000000   -0.00000000    0.00000000
     atom    4 type  1   force =     0.00000000    0.00000000    0.00000000
     The non-local contrib.  to forces
     atom    1 type  1   force =     0.00000000   -0.00000000    0.00000000
     atom    2 type  1   force =     0.00000000    0.00000000    0.00000000
     atom    3 type  1   force =     0.00000000    0.00000000    0.00000000
     atom    4 type  1   force =     0.00000000    0.00000000    0.00000000
     The ionic contribution  to forces
     atom    1 type  1   force =     0.00000852   -0.00000492   -0.00000000
     atom    2 type  1   force =    -0.00000856    0.00000494   -0.00000000
     atom    3 type  1   force =    -0.00000852    0.00000492    0.00000000
     atom    4 type  1   force =     0.00000856   -0.00000494    0.00000000
     The local contribution  to forces
     atom    1 type  1   force =    -0.00000000    0.00000000   -0.00000000
     atom    2 type  1   force =    -0.00000822    0.00000475   -0.00000000
     atom    3 type  1   force =     0.00000000   -0.00000000    0.00000000
     atom    4 type  1   force =     0.00000822   -0.00000475    0.00000000
     The core correction contribution to forces
     atom    1 type  1   force =     0.00000000    0.00000000    0.00000000
     atom    2 type  1   force =     0.00000000    0.00000000    0.00000000
     atom    3 type  1   force =     0.00000000    0.00000000    0.00000000
     atom    4 type  1   force =     0.00000000    0.00000000    0.00000000
     The Hubbard contrib.    to forces
     atom    1 type  1   force =     0.00000000    0.00000000    0.00000000
     atom    2 type  1   force =     0.00000000    0.00000000    0.00000000
     atom    3 type  1   force =     0.00000000    0.00000000    0.00000000
     atom    4 type  1   force =     0.00000000    0.00000000    0.00000000
     The SCF correction term to forces
     atom    1 type  1   force =    -0.00000000    0.00000000   -0.00000000
     atom    2 type  1   force =     0.00000000   -0.00000000   -0.00000000
     atom    3 type  1   force =     0.00000000   -0.00000000    0.00000000
     atom    4 type  1   force =    -0.00000000    0.00000000    0.00000000

     Total force =     0.000000     Total SCF correction =     0.000000


     Computing stress (Cartesian axis) and pressure

          total   stress  (Ry/bohr**3)                   (kbar)     P=    8.82
  -0.00007034   0.00000000  -0.00000000        -10.35      0.00     -0.00
   0.00000000  -0.00007034  -0.00000000          0.00    -10.35     -0.00
   0.00000000   0.00000000   0.00032064          0.00      0.00     47.17

     kinetic stress (kbar)  11086.60      0.00      0.00
                                0.00  11086.60     -0.00
                                0.00     -0.00  12877.39

     local   stress (kbar) -16917.61      0.01     -0.00
                                0.01 -16917.59      0.00
                               -0.00      0.00  24227.93

     nonloc. stress (kbar)   -479.53      0.00     -0.00
                                0.00   -479.53     -0.00
                                0.00      0.00   -480.21

     hartree stress (kbar)   6772.20      0.00      0.00
                                0.00   6772.20      0.00
                                0.00      0.00  -5666.63

     exc-cor stress (kbar)  -2845.55      0.00      0.00
                                0.00  -2845.55     -0.00
                                0.00     -0.00  -3092.61

     corecor stress (kbar)      0.00      0.00      0.00
                                0.00      0.00      0.00
                                0.00      0.00      0.00

     ewald   stress (kbar)   2365.81     -0.03      0.00
                               -0.03   2365.78     -0.00
                                0.00     -0.00 -27894.46

     hubbard stress (kbar)      0.00      0.00      0.00
                                0.00      0.00      0.00
                                0.00      0.00      0.00

     london  stress (kbar)      0.00      0.00      0.00
                                0.00      0.00      0.00
                                0.00      0.00      0.00

     DFT-D3  stress (kbar)      0.00      0.00      0.00
                                0.00      0.00      0.00
                                0.00      0.00      0.00

     XDM     stress (kbar)      0.00      0.00      0.00
                                0.00      0.00      0.00
                                0.00      0.00      0.00

     dft-nl  stress (kbar)      7.73      0.00      0.00
                                0.00      7.73      0.00
                                0.00      0.00     75.76

     TS-vdW  stress (kbar)      0.00      0.00      0.00
                                0.00      0.00      0.00
                                0.00      0.00      0.00



     Writing output data file graphite.save/
 
     init_run     :      0.12s CPU      0.14s WALL (       1 calls)
     electrons    :      0.94s CPU      0.96s WALL (       1 calls)
     forces       :      0.02s CPU      0.02s WALL (       1 calls)
     stress       :      0.18s CPU      0.18s WALL (       1 calls)

     Called by init_run:
     wfcinit      :      0.02s CPU      0.02s WALL (       1 calls)
     wfcinit:atom :      0.00s CPU      0.00s WALL (       6 calls)
     wfcinit:wfcr :      0.02s CPU      0.02s WALL (       6 calls)
     potinit      :      0.05s CPU      0.05s WALL (       1 calls)
     hinit0       :      0.03s CPU      0.03s WALL (       1 calls)

     Called by electrons:
     c_bands      :      0.41s CPU      0.42s WALL (       8 calls)
     sum_band     :      0.11s CPU      0.11s WALL (       8 calls)
     v_of_rho     :      0.42s CPU      0.43s WALL (       9 calls)
     v_h          :      0.00s CPU      0.00s WALL (       9 calls)
     v_xc         :      0.42s CPU      0.43s WALL (       9 calls)
     newd         :      0.03s CPU      0.03s WALL (       9 calls)
     mix_rho      :      0.00s CPU      0.01s WALL (       8 calls)

     Called by c_bands:
     init_us_2    :      0.01s CPU      0.01s WALL (     114 calls)
     cegterg      :      0.38s CPU      0.40s WALL (      48 calls)

     Called by sum_band:
     sum_band:bec :      0.00s CPU      0.00s WALL (      48 calls)
     addusdens    :      0.03s CPU      0.03s WALL (       8 calls)

     Called by *egterg:
     h_psi        :      0.30s CPU      0.33s WALL (     178 calls)
     s_psi        :      0.01s CPU      0.01s WALL (     178 calls)
     g_psi        :      0.00s CPU      0.00s WALL (     124 calls)
     cdiaghg      :      0.05s CPU      0.05s WALL (     172 calls)
     cegterg:over :      0.01s CPU      0.01s WALL (     124 calls)
     cegterg:upda :      0.00s CPU      0.01s WALL (     124 calls)
     cegterg:last :      0.00s CPU      0.00s WALL (      48 calls)

     Called by h_psi:
     h_psi:pot    :      0.30s CPU      0.33s WALL (     178 calls)
     h_psi:calbec :      0.00s CPU      0.01s WALL (     178 calls)
     vloc_psi     :      0.29s CPU      0.32s WALL (     178 calls)
     add_vuspsi   :      0.00s CPU      0.01s WALL (     178 calls)

     General routines
     calbec       :      0.01s CPU      0.01s WALL (     256 calls)
     fft          :      0.17s CPU      0.21s WALL (     617 calls)
     ffts         :      0.01s CPU      0.00s WALL (      17 calls)
     fftw         :      0.31s CPU      0.34s WALL (    3810 calls)
     interpolate  :      0.01s CPU      0.01s WALL (       9 calls)
 
     Parallel routines
     fft_scatt_xy :      0.07s CPU      0.07s WALL (    4444 calls)
     fft_scatt_yz :      0.07s CPU      0.10s WALL (    4444 calls)
 
     PWSCF        :      1.43s CPU      1.48s WALL

 
   This run was terminated on:  18:28:13   3Sep2019            

=------------------------------------------------------------------------------=
   JOB DONE.
=------------------------------------------------------------------------------=
