
     Program PWSCF v.6.4.1 starts on  3Sep2019 at 18:52: 0 

     This program is part of the open-source Quantum ESPRESSO suite
     for quantum simulation of materials; please cite
         "P. Giannozzi et al., J. Phys.:Condens. Matter 21 395502 (2009);
         "P. Giannozzi et al., J. Phys.:Condens. Matter 29 465901 (2017);
          URL http://www.quantum-espresso.org", 
     in publications or presentations arising from this work. More details at
     http://www.quantum-espresso.org/quote

     Parallel version (MPI), running on     2 processors

     MPI processes distributed on     1 nodes
     R & G space division:  proc/nbgrp/npool/nimage =       2
     Waiting for input...
     Reading input from standard input

     Current dimensions of program PWSCF are:
     Max number of different atomic species (ntypx) = 10
     Max number of k-points (npk) =  40000
     Max angular momentum in pseudopotentials (lmaxx) =  3
               file C.pz-rrkjus.UPF: wavefunction(s)  2S renormalized

     Subspace diagonalization in iterative solution of the eigenvalue problem:
     a serial algorithm will be used

 
     Parallelization info
     --------------------
     sticks:   dense  smooth     PW     G-vecs:    dense   smooth      PW
     Min         180      93     30                 7166     2525     520
     Max         181      94     31                 7173     2528     525
     Sum         361     187     61                14339     5053    1045
 


     bravais-lattice index     =            4
     lattice parameter (alat)  =       4.6601  a.u.
     unit-cell volume          =     227.8448 (a.u.)^3
     number of atoms/cell      =            4
     number of atomic types    =            1
     number of electrons       =        16.00
     number of Kohn-Sham states=           12
     kinetic-energy cutoff     =      30.0000  Ry
     charge density cutoff     =     240.0000  Ry
     convergence threshold     =      1.0E-09
     mixing beta               =       0.3000
     number of iterations used =            8  plain     mixing
     Exchange-correlation      = SLA PZ NOGX NOGC ( 1  1  0  0 0 0)
     nstep                     =           50


     celldm(1)=   4.660065  celldm(2)=   0.000000  celldm(3)=   2.599757
     celldm(4)=   0.000000  celldm(5)=   0.000000  celldm(6)=   0.000000

     crystal axes: (cart. coord. in units of alat)
               a(1) = (   1.000000   0.000000   0.000000 )  
               a(2) = (  -0.500000   0.866025   0.000000 )  
               a(3) = (   0.000000   0.000000   2.599757 )  

     reciprocal axes: (cart. coord. in units 2 pi/alat)
               b(1) = (  1.000000  0.577350  0.000000 )  
               b(2) = (  0.000000  1.154701  0.000000 )  
               b(3) = (  0.000000  0.000000  0.384651 )  


     PseudoPot. # 1 for C  read from file:
     ../../../pseudo/C.pz-rrkjus.UPF
     MD5 check sum: f3d00d2fdf13a37a7282bbbab8ba99e3
     Pseudo is Ultrasoft, Zval =  4.0
     Generated by new atomic code, or converted to UPF format
     Using radial grid of 1425 points,  4 beta functions with: 
                l(1) =   0
                l(2) =   0
                l(3) =   1
                l(4) =   1
     Q(r) pseudized with 0 coefficients 


     atomic species   valence    mass     pseudopotential
        C              4.00    12.01100     C ( 1.00)

     24 Sym. Ops., with inversion, found (12 have fractional translation)


                                    s                        frac. trans.

      isym =  1     identity                                     

 cryst.   s( 1) = (     1          0          0      )
                  (     0          1          0      )
                  (     0          0          1      )

 cart.    s( 1) = (  1.0000000  0.0000000  0.0000000 )
                  (  0.0000000  1.0000000  0.0000000 )
                  (  0.0000000  0.0000000  1.0000000 )


      isym =  2     180 deg rotation - cart. axis [0,0,1]        

 cryst.   s( 2) = (    -1          0          0      )    f =( -0.0000000 )
                  (     0         -1          0      )       ( -0.0000000 )
                  (     0          0          1      )       (  0.5000000 )

 cart.    s( 2) = ( -1.0000000  0.0000000  0.0000000 )    f =(  0.0000000 )
                  (  0.0000000 -1.0000000  0.0000000 )       ( -0.0000000 )
                  (  0.0000000  0.0000000  1.0000000 )       (  1.2998783 )


      isym =  3     180 deg rotation - cart. axis [0,1,0]        

 cryst.   s( 3) = (    -1          0          0      )    f =( -0.0000000 )
                  (     1          1          0      )       (  0.0000000 )
                  (     0          0         -1      )       (  0.5000000 )

 cart.    s( 3) = ( -1.0000000  0.0000000  0.0000000 )    f =( -0.0000000 )
                  (  0.0000000  1.0000000  0.0000000 )       (  0.0000000 )
                  (  0.0000000  0.0000000 -1.0000000 )       (  1.2998783 )


      isym =  4     180 deg rotation - cart. axis [1,0,0]        

 cryst.   s( 4) = (     1          0          0      )
                  (    -1         -1          0      )
                  (     0          0         -1      )

 cart.    s( 4) = (  1.0000000  0.0000000  0.0000000 )
                  (  0.0000000 -1.0000000  0.0000000 )
                  (  0.0000000  0.0000000 -1.0000000 )


      isym =  5      60 deg rotation - cryst. axis [0,0,1]       

 cryst.   s( 5) = (     1          1          0      )    f =(  0.0000000 )
                  (    -1          0          0      )       (  0.0000000 )
                  (     0          0          1      )       (  0.5000000 )

 cart.    s( 5) = (  0.5000000 -0.8660254  0.0000000 )    f =(  0.0000000 )
                  (  0.8660254  0.5000000  0.0000000 )       (  0.0000000 )
                  (  0.0000000  0.0000000  1.0000000 )       (  1.2998783 )


      isym =  6      60 deg rotation - cryst. axis [0,0,-1]      

 cryst.   s( 6) = (     0         -1          0      )    f =(  0.0000000 )
                  (     1          1          0      )       ( -0.0000000 )
                  (     0          0          1      )       (  0.5000000 )

 cart.    s( 6) = (  0.5000000  0.8660254  0.0000000 )    f =(  0.0000000 )
                  ( -0.8660254  0.5000000  0.0000000 )       ( -0.0000000 )
                  (  0.0000000  0.0000000  1.0000000 )       (  1.2998783 )


      isym =  7     120 deg rotation - cryst. axis [0,0,1]       

 cryst.   s( 7) = (     0          1          0      )
                  (    -1         -1          0      )
                  (     0          0          1      )

 cart.    s( 7) = ( -0.5000000 -0.8660254  0.0000000 )
                  (  0.8660254 -0.5000000  0.0000000 )
                  (  0.0000000  0.0000000  1.0000000 )


      isym =  8     120 deg rotation - cryst. axis [0,0,-1]      

 cryst.   s( 8) = (    -1         -1          0      )
                  (     1          0          0      )
                  (     0          0          1      )

 cart.    s( 8) = ( -0.5000000  0.8660254  0.0000000 )
                  ( -0.8660254 -0.5000000  0.0000000 )
                  (  0.0000000  0.0000000  1.0000000 )


      isym =  9     180 deg rotation - cryst. axis [1,-1,0]      

 cryst.   s( 9) = (     0         -1          0      )    f =( -0.0000000 )
                  (    -1          0          0      )       ( -0.0000000 )
                  (     0          0         -1      )       (  0.5000000 )

 cart.    s( 9) = (  0.5000000 -0.8660254  0.0000000 )    f =( -0.0000000 )
                  ( -0.8660254 -0.5000000  0.0000000 )       ( -0.0000000 )
                  (  0.0000000  0.0000000 -1.0000000 )       (  1.2998783 )


      isym = 10     180 deg rotation - cryst. axis [2,1,0]       

 cryst.   s(10) = (     1          1          0      )    f =(  0.0000000 )
                  (     0         -1          0      )       (  0.0000000 )
                  (     0          0         -1      )       (  0.5000000 )

 cart.    s(10) = (  0.5000000  0.8660254  0.0000000 )    f =(  0.0000000 )
                  (  0.8660254 -0.5000000  0.0000000 )       (  0.0000000 )
                  (  0.0000000  0.0000000 -1.0000000 )       (  1.2998783 )


      isym = 11     180 deg rotation - cryst. axis [0,1,0]       

 cryst.   s(11) = (    -1         -1          0      )
                  (     0          1          0      )
                  (     0          0         -1      )

 cart.    s(11) = ( -0.5000000 -0.8660254  0.0000000 )
                  ( -0.8660254  0.5000000  0.0000000 )
                  (  0.0000000  0.0000000 -1.0000000 )


      isym = 12     180 deg rotation - cryst. axis [1,1,0]       

 cryst.   s(12) = (     0          1          0      )
                  (     1          0          0      )
                  (     0          0         -1      )

 cart.    s(12) = ( -0.5000000  0.8660254  0.0000000 )
                  (  0.8660254  0.5000000  0.0000000 )
                  (  0.0000000  0.0000000 -1.0000000 )


      isym = 13     inversion                                    

 cryst.   s(13) = (    -1          0          0      )
                  (     0         -1          0      )
                  (     0          0         -1      )

 cart.    s(13) = ( -1.0000000  0.0000000  0.0000000 )
                  (  0.0000000 -1.0000000  0.0000000 )
                  (  0.0000000  0.0000000 -1.0000000 )


      isym = 14     inv. 180 deg rotation - cart. axis [0,0,1]   

 cryst.   s(14) = (     1          0          0      )    f =(  0.0000000 )
                  (     0          1          0      )       (  0.0000000 )
                  (     0          0         -1      )       (  0.5000000 )

 cart.    s(14) = (  1.0000000  0.0000000  0.0000000 )    f =(  0.0000000 )
                  (  0.0000000  1.0000000  0.0000000 )       (  0.0000000 )
                  (  0.0000000  0.0000000 -1.0000000 )       (  1.2998783 )


      isym = 15     inv. 180 deg rotation - cart. axis [0,1,0]   

 cryst.   s(15) = (     1          0          0      )    f =(  0.0000000 )
                  (    -1         -1          0      )       ( -0.0000000 )
                  (     0          0          1      )       (  0.5000000 )

 cart.    s(15) = (  1.0000000  0.0000000  0.0000000 )    f =(  0.0000000 )
                  (  0.0000000 -1.0000000  0.0000000 )       ( -0.0000000 )
                  (  0.0000000  0.0000000  1.0000000 )       (  1.2998783 )


      isym = 16     inv. 180 deg rotation - cart. axis [1,0,0]   

 cryst.   s(16) = (    -1          0          0      )
                  (     1          1          0      )
                  (     0          0          1      )

 cart.    s(16) = ( -1.0000000  0.0000000  0.0000000 )
                  (  0.0000000  1.0000000  0.0000000 )
                  (  0.0000000  0.0000000  1.0000000 )


      isym = 17     inv.  60 deg rotation - cryst. axis [0,0,1]  

 cryst.   s(17) = (    -1         -1          0      )    f =( -0.0000000 )
                  (     1          0          0      )       ( -0.0000000 )
                  (     0          0         -1      )       (  0.5000000 )

 cart.    s(17) = ( -0.5000000  0.8660254  0.0000000 )    f =(  0.0000000 )
                  ( -0.8660254 -0.5000000  0.0000000 )       ( -0.0000000 )
                  (  0.0000000  0.0000000 -1.0000000 )       (  1.2998783 )


      isym = 18     inv.  60 deg rotation - cryst. axis [0,0,-1] 

 cryst.   s(18) = (     0          1          0      )    f =( -0.0000000 )
                  (    -1         -1          0      )       (  0.0000000 )
                  (     0          0         -1      )       (  0.5000000 )

 cart.    s(18) = ( -0.5000000 -0.8660254  0.0000000 )    f =( -0.0000000 )
                  (  0.8660254 -0.5000000  0.0000000 )       (  0.0000000 )
                  (  0.0000000  0.0000000 -1.0000000 )       (  1.2998783 )


      isym = 19     inv. 120 deg rotation - cryst. axis [0,0,1]  

 cryst.   s(19) = (     0         -1          0      )
                  (     1          1          0      )
                  (     0          0         -1      )

 cart.    s(19) = (  0.5000000  0.8660254  0.0000000 )
                  ( -0.8660254  0.5000000  0.0000000 )
                  (  0.0000000  0.0000000 -1.0000000 )


      isym = 20     inv. 120 deg rotation - cryst. axis [0,0,-1] 

 cryst.   s(20) = (     1          1          0      )
                  (    -1          0          0      )
                  (     0          0         -1      )

 cart.    s(20) = (  0.5000000 -0.8660254  0.0000000 )
                  (  0.8660254  0.5000000  0.0000000 )
                  (  0.0000000  0.0000000 -1.0000000 )


      isym = 21     inv. 180 deg rotation - cryst. axis [1,-1,0] 

 cryst.   s(21) = (     0          1          0      )    f =(  0.0000000 )
                  (     1          0          0      )       (  0.0000000 )
                  (     0          0          1      )       (  0.5000000 )

 cart.    s(21) = ( -0.5000000  0.8660254  0.0000000 )    f =(  0.0000000 )
                  (  0.8660254  0.5000000  0.0000000 )       (  0.0000000 )
                  (  0.0000000  0.0000000  1.0000000 )       (  1.2998783 )


      isym = 22     inv. 180 deg rotation - cryst. axis [2,1,0]  

 cryst.   s(22) = (    -1         -1          0      )    f =( -0.0000000 )
                  (     0          1          0      )       ( -0.0000000 )
                  (     0          0          1      )       (  0.5000000 )

 cart.    s(22) = ( -0.5000000 -0.8660254  0.0000000 )    f =( -0.0000000 )
                  ( -0.8660254  0.5000000  0.0000000 )       ( -0.0000000 )
                  (  0.0000000  0.0000000  1.0000000 )       (  1.2998783 )


      isym = 23     inv. 180 deg rotation - cryst. axis [0,1,0]  

 cryst.   s(23) = (     1          1          0      )
                  (     0         -1          0      )
                  (     0          0          1      )

 cart.    s(23) = (  0.5000000  0.8660254  0.0000000 )
                  (  0.8660254 -0.5000000  0.0000000 )
                  (  0.0000000  0.0000000  1.0000000 )


      isym = 24     inv. 180 deg rotation - cryst. axis [1,1,0]  

 cryst.   s(24) = (     0         -1          0      )
                  (    -1          0          0      )
                  (     0          0          1      )

 cart.    s(24) = (  0.5000000 -0.8660254  0.0000000 )
                  ( -0.8660254 -0.5000000  0.0000000 )
                  (  0.0000000  0.0000000  1.0000000 )


     point group D_6h(6/mmm)
     there are 12 classes
     the character table:

       E     2C6   2C3   C2    3C2'  3C2'' i     2S3   2S6   s_h   3s_d  3s_v 
A_1g   1.00  1.00  1.00  1.00  1.00  1.00  1.00  1.00  1.00  1.00  1.00  1.00
A_2g   1.00  1.00  1.00  1.00 -1.00 -1.00  1.00  1.00  1.00  1.00 -1.00 -1.00
B_1g   1.00 -1.00  1.00 -1.00  1.00 -1.00  1.00 -1.00  1.00 -1.00  1.00 -1.00
B_2g   1.00 -1.00  1.00 -1.00 -1.00  1.00  1.00 -1.00  1.00 -1.00 -1.00  1.00
E_1g   2.00  1.00 -1.00 -2.00  0.00  0.00  2.00  1.00 -1.00 -2.00  0.00  0.00
E_2g   2.00 -1.00 -1.00  2.00  0.00  0.00  2.00 -1.00 -1.00  2.00  0.00  0.00
A_1u   1.00  1.00  1.00  1.00  1.00  1.00 -1.00 -1.00 -1.00 -1.00 -1.00 -1.00
A_2u   1.00  1.00  1.00  1.00 -1.00 -1.00 -1.00 -1.00 -1.00 -1.00  1.00  1.00
B_1u   1.00 -1.00  1.00 -1.00  1.00 -1.00 -1.00  1.00 -1.00  1.00 -1.00  1.00
B_2u   1.00 -1.00  1.00 -1.00 -1.00  1.00 -1.00  1.00 -1.00  1.00  1.00 -1.00
E_1u   2.00  1.00 -1.00 -2.00  0.00  0.00 -2.00 -1.00  1.00  2.00  0.00  0.00
E_2u   2.00 -1.00 -1.00  2.00  0.00  0.00 -2.00  1.00  1.00 -2.00  0.00  0.00

     the symmetry operations in each class and the name of the first element:

     E        1
          identity                                               
     2C6      5    6
           60 deg rotation - cryst. axis [0,0,1]                 
     2C3      7    8
          120 deg rotation - cryst. axis [0,0,1]                 
     C2       2
          180 deg rotation - cart. axis [0,0,1]                  
     3C2'     4   12   11
          180 deg rotation - cart. axis [1,0,0]                  
     3C2''    3    9   10
          180 deg rotation - cart. axis [0,1,0]                  
     i       13
          inversion                                              
     2S3     17   18
          inv.  60 deg rotation - cryst. axis [0,0,1]            
     2S6     19   20
          inv. 120 deg rotation - cryst. axis [0,0,1]            
     s_h     14
          inv. 180 deg rotation - cart. axis [0,0,1]             
     3s_d    16   24   23
          inv. 180 deg rotation - cart. axis [1,0,0]             
     3s_v    15   21   22
          inv. 180 deg rotation - cart. axis [0,1,0]             

   Cartesian axes

     site n.     atom                  positions (alat units)
         1           C   tau(   1) = (  -0.5000000   0.8660254   1.9498175  )
         2           C   tau(   2) = (   0.5000005   0.2886748   1.9498175  )
         3           C   tau(   3) = (  -0.5000000   0.8660254   0.6499392  )
         4           C   tau(   4) = (  -0.0000005   0.5773506   0.6499392  )

   Crystallographic axes

     site n.     atom                  positions (cryst. coord.)
         1           C   tau(   1) = (  0.0000000  1.0000000  0.7500000  )
         2           C   tau(   2) = (  0.6666670  0.3333330  0.7500000  )
         3           C   tau(   3) = (  0.0000000  1.0000000  0.2500000  )
         4           C   tau(   4) = (  0.3333330  0.6666670  0.2500000  )

     number of k points=     6  Marzari-Vanderbilt smearing, width (Ry)=  0.0200
                       cart. coord. in units 2pi/alat
        k(    1) = (   0.1250000   0.2165064   0.0961628), wk =   0.2500000
        k(    2) = (   0.1250000   0.5051815   0.0961628), wk =   0.5000000
        k(    3) = (   0.1250000  -0.3608439   0.0961628), wk =   0.5000000
        k(    4) = (   0.1250000  -0.0721688   0.0961628), wk =   0.2500000
        k(    5) = (   0.3750000   0.6495191   0.0961628), wk =   0.2500000
        k(    6) = (   0.3750000  -0.2165064   0.0961628), wk =   0.2500000

                       cryst. coord.
        k(    1) = (   0.1250000   0.1250000   0.2500000), wk =   0.2500000
        k(    2) = (   0.1250000   0.3750000   0.2500000), wk =   0.5000000
        k(    3) = (   0.1250000  -0.3750000   0.2500000), wk =   0.5000000
        k(    4) = (   0.1250000  -0.1250000   0.2500000), wk =   0.2500000
        k(    5) = (   0.3750000   0.3750000   0.2500000), wk =   0.2500000
        k(    6) = (   0.3750000  -0.3750000   0.2500000), wk =   0.2500000

     Dense  grid:    14339 G-vectors     FFT dimensions: (  24,  24,  60)

     Smooth grid:     5053 G-vectors     FFT dimensions: (  18,  18,  48)

     Dynamical RAM for                 wfc:       0.06 MB

     Dynamical RAM for     wfc (w. buffer):       0.41 MB

     Dynamical RAM for           str. fact:       0.11 MB

     Dynamical RAM for           local pot:       0.00 MB

     Dynamical RAM for          nlocal pot:       0.15 MB

     Dynamical RAM for                qrad:       0.53 MB

     Dynamical RAM for          rho,v,vnew:       0.72 MB

     Dynamical RAM for               rhoin:       0.24 MB

     Dynamical RAM for            rho*nmix:       1.75 MB

     Dynamical RAM for           G-vectors:       0.43 MB

     Dynamical RAM for          h,s,v(r/c):       0.11 MB

     Dynamical RAM for          <psi|beta>:       0.01 MB

     Dynamical RAM for                 psi:       0.23 MB

     Dynamical RAM for                hpsi:       0.23 MB

     Dynamical RAM for                spsi:       0.23 MB

     Dynamical RAM for      wfcinit/wfcrot:       0.16 MB

     Dynamical RAM for           addusdens:       5.14 MB

     Dynamical RAM for          addusforce:       5.86 MB

     Dynamical RAM for         addusstress:       5.47 MB

     Estimated static dynamical RAM per process >       5.22 MB

     Estimated max dynamical RAM per process >      11.08 MB

     Estimated total dynamical RAM >      22.16 MB

     Initial potential from superposition of free atoms

     starting charge   15.99984, renormalised to   16.00000
     Starting wfcs are   16 randomized atomic wfcs

     total cpu time spent up to now is        0.5 secs

     Self-consistent Calculation

     iteration #  1     ecut=    30.00 Ry     beta= 0.30
     Davidson diagonalization with overlap
     ethr =  1.00E-02,  avg # of iterations =  3.5

     total cpu time spent up to now is        0.6 secs

     total energy              =     -45.75408726 Ry
     Harris-Foulkes estimate   =     -45.89366513 Ry
     estimated scf accuracy    <       0.39756533 Ry

     iteration #  2     ecut=    30.00 Ry     beta= 0.30
     Davidson diagonalization with overlap
     ethr =  2.48E-03,  avg # of iterations =  1.0

     total cpu time spent up to now is        0.7 secs

     total energy              =     -45.68120494 Ry
     Harris-Foulkes estimate   =     -45.76650990 Ry
     estimated scf accuracy    <       0.13909470 Ry

     iteration #  3     ecut=    30.00 Ry     beta= 0.30
     Davidson diagonalization with overlap
     ethr =  8.69E-04,  avg # of iterations =  3.2

     total cpu time spent up to now is        0.8 secs

     total energy              =     -45.70901838 Ry
     Harris-Foulkes estimate   =     -45.71013556 Ry
     estimated scf accuracy    <       0.00343344 Ry

     iteration #  4     ecut=    30.00 Ry     beta= 0.30
     Davidson diagonalization with overlap
     ethr =  2.15E-05,  avg # of iterations =  3.8

     total cpu time spent up to now is        0.9 secs

     total energy              =     -45.70869577 Ry
     Harris-Foulkes estimate   =     -45.71097517 Ry
     estimated scf accuracy    <       0.00385147 Ry

     iteration #  5     ecut=    30.00 Ry     beta= 0.30
     Davidson diagonalization with overlap
     ethr =  2.15E-05,  avg # of iterations =  2.0

     total cpu time spent up to now is        0.9 secs

     total energy              =     -45.70923210 Ry
     Harris-Foulkes estimate   =     -45.70922902 Ry
     estimated scf accuracy    <       0.00000493 Ry

     iteration #  6     ecut=    30.00 Ry     beta= 0.30
     Davidson diagonalization with overlap
     c_bands:  1 eigenvalues not converged
     ethr =  3.08E-08,  avg # of iterations =  6.8

     total cpu time spent up to now is        1.0 secs

     total energy              =     -45.70924847 Ry
     Harris-Foulkes estimate   =     -45.70924893 Ry
     estimated scf accuracy    <       0.00000187 Ry

     iteration #  7     ecut=    30.00 Ry     beta= 0.30
     Davidson diagonalization with overlap
     c_bands:  1 eigenvalues not converged
     ethr =  1.17E-08,  avg # of iterations =  4.8

     total cpu time spent up to now is        1.1 secs

     total energy              =     -45.70924860 Ry
     Harris-Foulkes estimate   =     -45.70924859 Ry
     estimated scf accuracy    <       0.00000019 Ry

     iteration #  8     ecut=    30.00 Ry     beta= 0.30
     Davidson diagonalization with overlap
     ethr =  1.18E-09,  avg # of iterations =  2.5

     total cpu time spent up to now is        1.2 secs

     total energy              =     -45.70924867 Ry
     Harris-Foulkes estimate   =     -45.70924865 Ry
     estimated scf accuracy    <       0.00000014 Ry

     iteration #  9     ecut=    30.00 Ry     beta= 0.30
     Davidson diagonalization with overlap
     ethr =  8.90E-10,  avg # of iterations =  1.0

     total cpu time spent up to now is        1.2 secs

     total energy              =     -45.70924860 Ry
     Harris-Foulkes estimate   =     -45.70924867 Ry
     estimated scf accuracy    <       0.00000022 Ry

     iteration # 10     ecut=    30.00 Ry     beta= 0.30
     Davidson diagonalization with overlap
     ethr =  8.90E-10,  avg # of iterations =  1.2

     total cpu time spent up to now is        1.3 secs

     total energy              =     -45.70924861 Ry
     Harris-Foulkes estimate   =     -45.70924861 Ry
     estimated scf accuracy    <          1.6E-09 Ry

     iteration # 11     ecut=    30.00 Ry     beta= 0.30
     Davidson diagonalization with overlap
     ethr =  1.01E-11,  avg # of iterations =  3.3

     total cpu time spent up to now is        1.3 secs

     End of self-consistent calculation

          k = 0.1250 0.2165 0.0962 (   626 PWs)   bands (ev):

   -11.0921 -10.7957   0.0852   1.0666   1.1143   1.7859   2.0773   2.1116
    13.7204  15.1380  15.5167  16.2955

     occupation numbers 
     1.0000   1.0000   1.0000   1.0000   1.0000   1.0000   1.0000   1.0000
     0.0000   0.0000   0.0000   0.0000

          k = 0.1250 0.5052 0.0962 (   635 PWs)   bands (ev):

    -7.5632  -7.3370  -4.7166  -4.5435  -0.2105  -0.1222   4.0829   5.1952
     9.0761   9.8212  16.0042  16.4402

     occupation numbers 
     1.0000   1.0000   1.0000   1.0000   1.0000   1.0000   1.0000   1.0000
     0.0000   0.0000   0.0000   0.0000

          k = 0.1250-0.3608 0.0962 (   638 PWs)   bands (ev):

    -9.6464  -9.3768  -1.7127  -1.5931   0.5538   0.6283   1.8069   3.3663
    12.0448  12.6792  15.3655  16.3541

     occupation numbers 
     1.0000   1.0000   1.0000   1.0000   1.0000   1.0000   1.0000   1.0000
     0.0000   0.0000   0.0000   0.0000

          k = 0.1250-0.0722 0.0962 (   616 PWs)   bands (ev):

   -11.8260 -11.5159  -0.8040   0.9518   2.8199   2.8724   3.4705   3.5092
    12.8766  15.5093  15.6535  16.9515

     occupation numbers 
     1.0000   1.0000   1.0000   1.0000   1.0000   1.0000   1.0000   1.0000
     0.0000   0.0000   0.0000   0.0000

          k = 0.3750 0.6495 0.0962 (   638 PWs)   bands (ev):

    -5.9123  -5.8024  -5.0812  -5.0285  -2.5304  -2.4151   5.7947   6.4142
     8.1539   8.3098  17.6471  17.8324

     occupation numbers 
     1.0000   1.0000   1.0000   1.0000   1.0000   1.0000   1.0006   0.9994
     0.0000   0.0000   0.0000   0.0000

          k = 0.3750-0.2165 0.0962 (   632 PWs)   bands (ev):

    -8.9351  -8.6788  -3.4150  -3.2540   1.1561   1.2154   2.6032   4.0382
    10.5146  11.4354  14.6923  15.0417

     occupation numbers 
     1.0000   1.0000   1.0000   1.0000   1.0000   1.0000   1.0000   1.0000
     0.0000   0.0000   0.0000   0.0000

     the Fermi energy is     6.6644 ev

!    total energy              =     -45.70924861 Ry
     Harris-Foulkes estimate   =     -45.70924861 Ry
     estimated scf accuracy    <          7.7E-10 Ry

     The total energy is the sum of the following terms:

     one-electron contribution =      -7.90157697 Ry
     hartree contribution      =      11.96978746 Ry
     xc contribution           =     -13.90187880 Ry
     ewald contribution        =     -35.87599542 Ry
     smearing contrib. (-TS)   =       0.00041511 Ry

     convergence has been achieved in  11 iterations

     Forces acting on atoms (cartesian axes, Ry/au):

     atom    1 type  1   force =    -0.00000000   -0.00000000    0.00000000
     atom    2 type  1   force =     0.00000000    0.00000000    0.00000000
     atom    3 type  1   force =     0.00000000    0.00000000    0.00000000
     atom    4 type  1   force =    -0.00000000   -0.00000000    0.00000000
     The non-local contrib.  to forces
     atom    1 type  1   force =    -0.00000000    0.00000000    0.00000000
     atom    2 type  1   force =     0.00000000   -0.00000000    0.00000000
     atom    3 type  1   force =     0.00000000    0.00000000    0.00000000
     atom    4 type  1   force =     0.00000000    0.00000000    0.00000000
     The ionic contribution  to forces
     atom    1 type  1   force =     0.00000852   -0.00000492   -0.00000000
     atom    2 type  1   force =    -0.00000856    0.00000494   -0.00000000
     atom    3 type  1   force =    -0.00000852    0.00000492    0.00000000
     atom    4 type  1   force =     0.00000856   -0.00000494    0.00000000
     The local contribution  to forces
     atom    1 type  1   force =    -0.00000000    0.00000000   -0.00000000
     atom    2 type  1   force =    -0.00000688    0.00000397   -0.00000000
     atom    3 type  1   force =    -0.00000000   -0.00000000    0.00000000
     atom    4 type  1   force =     0.00000688   -0.00000397    0.00000000
     The core correction contribution to forces
     atom    1 type  1   force =     0.00000000    0.00000000    0.00000000
     atom    2 type  1   force =     0.00000000    0.00000000    0.00000000
     atom    3 type  1   force =     0.00000000    0.00000000    0.00000000
     atom    4 type  1   force =     0.00000000    0.00000000    0.00000000
     The Hubbard contrib.    to forces
     atom    1 type  1   force =     0.00000000    0.00000000    0.00000000
     atom    2 type  1   force =     0.00000000    0.00000000    0.00000000
     atom    3 type  1   force =     0.00000000    0.00000000    0.00000000
     atom    4 type  1   force =     0.00000000    0.00000000    0.00000000
     The SCF correction term to forces
     atom    1 type  1   force =     0.00000000   -0.00000000   -0.00000000
     atom    2 type  1   force =     0.00000000   -0.00000000    0.00000000
     atom    3 type  1   force =    -0.00000000    0.00000000    0.00000000
     atom    4 type  1   force =    -0.00000000    0.00000000    0.00000000

     Total force =     0.000000     Total SCF correction =     0.000000


     Computing stress (Cartesian axis) and pressure

          total   stress  (Ry/bohr**3)                   (kbar)     P=  -95.24
  -0.00096175  -0.00000000   0.00000000       -141.48     -0.00      0.00
  -0.00000000  -0.00096175  -0.00000000         -0.00   -141.48     -0.00
   0.00000000   0.00000000  -0.00001870          0.00      0.00     -2.75

     kinetic stress (kbar)  11393.56      0.00      0.00
                                0.00  11393.56      0.00
                                0.00      0.00  13139.83

     local   stress (kbar) -21822.23      0.01     -0.00
                                0.01 -21822.21      0.00
                               -0.00      0.00  19614.77

     nonloc. stress (kbar)   4004.44     -0.00      0.00
                               -0.00   4004.44     -0.00
                                0.00     -0.00   3522.18

     hartree stress (kbar)   6676.72      0.00      0.00
                                0.00   6676.72      0.00
                                0.00      0.00  -5625.29

     exc-cor stress (kbar)  -2759.77      0.00      0.00
                                0.00  -2759.77      0.00
                                0.00      0.00  -2759.77

     corecor stress (kbar)      0.00      0.00      0.00
                                0.00      0.00      0.00
                                0.00      0.00      0.00

     ewald   stress (kbar)   2365.81     -0.03      0.00
                               -0.03   2365.78     -0.00
                                0.00     -0.00 -27894.46

     hubbard stress (kbar)      0.00      0.00      0.00
                                0.00      0.00      0.00
                                0.00      0.00      0.00

     london  stress (kbar)      0.00      0.00      0.00
                                0.00      0.00      0.00
                                0.00      0.00      0.00

     DFT-D3  stress (kbar)      0.00      0.00      0.00
                                0.00      0.00      0.00
                                0.00      0.00      0.00

     XDM     stress (kbar)      0.00      0.00      0.00
                                0.00      0.00      0.00
                                0.00      0.00      0.00

     dft-nl  stress (kbar)      0.00      0.00      0.00
                                0.00      0.00      0.00
                                0.00      0.00      0.00

     TS-vdW  stress (kbar)      0.00      0.00      0.00
                                0.00      0.00      0.00
                                0.00      0.00      0.00



     BFGS Geometry Optimization

     number of scf cycles    =   1
     number of bfgs steps    =   0

     enthalpy new            =     -45.7092486106 Ry

     new trust radius        =       0.0725856289 bohr
     new conv_thr            =       0.0000000010 Ry

     new unit-cell volume =    216.91861 a.u.^3 (    32.14402 Ang^3 )
     density =      2.48192 g/cm^3

CELL_PARAMETERS (alat=  4.66006464)
   0.975956313  -0.000000000   0.000000000
  -0.487978156   0.845202960   0.000000000
   0.000000000  -0.000000000   2.598541209

ATOMIC_POSITIONS (crystal)
C        0.000000000   1.000000000   0.750000000
C        0.666667000   0.333333000   0.750000000
C        0.000000000   1.000000000   0.250000000
C        0.333333000   0.666667000   0.250000000



     Writing output data file graphite.save/
     NEW-OLD atomic charge density approx. for the potential
     extrapolated charge   15.19409, renormalised to   16.00000

     total cpu time spent up to now is        1.7 secs

     Self-consistent Calculation

     iteration #  1     ecut=    30.00 Ry     beta= 0.30
     Davidson diagonalization with overlap
     ethr =  1.00E-06,  avg # of iterations =  8.0

     total cpu time spent up to now is        1.9 secs

     total energy              =     -45.68345298 Ry
     Harris-Foulkes estimate   =     -46.03705353 Ry
     estimated scf accuracy    <       0.01902307 Ry

     iteration #  2     ecut=    30.00 Ry     beta= 0.30
     Davidson diagonalization with overlap
     ethr =  1.19E-04,  avg # of iterations =  4.2

     total cpu time spent up to now is        1.9 secs

     total energy              =     -45.70804495 Ry
     Harris-Foulkes estimate   =     -45.70845980 Ry
     estimated scf accuracy    <       0.00142313 Ry

     iteration #  3     ecut=    30.00 Ry     beta= 0.30
     Davidson diagonalization with overlap
     ethr =  8.89E-06,  avg # of iterations =  2.8

     total cpu time spent up to now is        2.0 secs

     total energy              =     -45.70770137 Ry
     Harris-Foulkes estimate   =     -45.70811019 Ry
     estimated scf accuracy    <       0.00061650 Ry

     iteration #  4     ecut=    30.00 Ry     beta= 0.30
     Davidson diagonalization with overlap
     ethr =  3.85E-06,  avg # of iterations =  3.0

     total cpu time spent up to now is        2.1 secs

     total energy              =     -45.70787107 Ry
     Harris-Foulkes estimate   =     -45.70788642 Ry
     estimated scf accuracy    <       0.00006162 Ry

     iteration #  5     ecut=    30.00 Ry     beta= 0.30
     Davidson diagonalization with overlap
     ethr =  3.85E-07,  avg # of iterations =  1.2

     total cpu time spent up to now is        2.1 secs

     total energy              =     -45.70786027 Ry
     Harris-Foulkes estimate   =     -45.70787299 Ry
     estimated scf accuracy    <       0.00003260 Ry

     iteration #  6     ecut=    30.00 Ry     beta= 0.30
     Davidson diagonalization with overlap
     ethr =  2.04E-07,  avg # of iterations =  1.2

     total cpu time spent up to now is        2.2 secs

     total energy              =     -45.70785778 Ry
     Harris-Foulkes estimate   =     -45.70786175 Ry
     estimated scf accuracy    <       0.00000925 Ry

     iteration #  7     ecut=    30.00 Ry     beta= 0.30
     Davidson diagonalization with overlap
     ethr =  5.78E-08,  avg # of iterations =  2.0

     total cpu time spent up to now is        2.2 secs

     total energy              =     -45.70785770 Ry
     Harris-Foulkes estimate   =     -45.70785871 Ry
     estimated scf accuracy    <       0.00000170 Ry

     iteration #  8     ecut=    30.00 Ry     beta= 0.30
     Davidson diagonalization with overlap
     ethr =  1.06E-08,  avg # of iterations =  2.7

     total cpu time spent up to now is        2.3 secs

     total energy              =     -45.70785814 Ry
     Harris-Foulkes estimate   =     -45.70785813 Ry
     estimated scf accuracy    <          8.3E-09 Ry

     iteration #  9     ecut=    30.00 Ry     beta= 0.30
     Davidson diagonalization with overlap
     ethr =  5.21E-11,  avg # of iterations =  3.2

     total cpu time spent up to now is        2.3 secs

     total energy              =     -45.70785816 Ry
     Harris-Foulkes estimate   =     -45.70785814 Ry
     estimated scf accuracy    <          8.8E-09 Ry

     iteration # 10     ecut=    30.00 Ry     beta= 0.30
     Davidson diagonalization with overlap
     ethr =  5.21E-11,  avg # of iterations =  2.8

     total cpu time spent up to now is        2.4 secs

     total energy              =     -45.70785813 Ry
     Harris-Foulkes estimate   =     -45.70785816 Ry
     estimated scf accuracy    <       0.00000005 Ry

     iteration # 11     ecut=    30.00 Ry     beta= 0.30
     Davidson diagonalization with overlap
     ethr =  5.21E-11,  avg # of iterations =  3.0

     total cpu time spent up to now is        2.5 secs

     End of self-consistent calculation

          k = 0.1281 0.2218 0.0962 (   626 PWs)   bands (ev):

   -11.0533 -10.7660   0.2502   1.5817   1.6250   1.9199   2.5252   2.5561
    14.0636  16.3053  16.6757  17.3930

     occupation numbers 
     1.0000   1.0000   1.0000   1.0000   1.0000   1.0000   1.0000   1.0000
     0.0000   0.0000   0.0000   0.0000

          k = 0.1281 0.5176 0.0962 (   635 PWs)   bands (ev):

    -7.3560  -7.1367  -4.4626  -4.2948   0.1276   0.2092   4.4952   5.5961
     9.7390  10.5027  17.3423  17.7447

     occupation numbers 
     1.0000   1.0000   1.0000   1.0000   1.0000   1.0000   1.0000   1.0000
     0.0000   0.0000   0.0000   0.0000

          k = 0.1281-0.3697 0.0962 (   638 PWs)   bands (ev):

    -9.5446  -9.2844  -1.3090  -1.1955   0.9242   0.9940   2.0753   3.6098
    12.9567  13.5950  15.8295  17.6284

     occupation numbers 
     1.0000   1.0000   1.0000   1.0000   1.0000   1.0000   1.0000   1.0000
     0.0000   0.0000   0.0000   0.0000

          k = 0.1281-0.0739 0.0962 (   616 PWs)   bands (ev):

   -11.8184 -11.5170  -0.6914   1.0306   3.3798   3.4273   4.0181   4.0528
    13.1677  16.6022  16.7616  17.8648

     occupation numbers 
     1.0000   1.0000   1.0000   1.0000   1.0000   1.0000   1.0000   1.0000
     0.0000   0.0000   0.0000   0.0000

          k = 0.3842 0.6655 0.0962 (   638 PWs)   bands (ev):

    -5.5640  -5.4598  -4.8667  -4.8083  -2.3359  -2.2192   6.3197   6.9244
     8.7850   8.9112  18.3796  18.6140

     occupation numbers 
     1.0000   1.0000   1.0000   1.0000   1.0000   1.0000   1.0008   0.9992
     0.0000   0.0000   0.0000   0.0000

          k = 0.3842-0.2218 0.0962 (   632 PWs)   bands (ev):

    -8.8000  -8.5529  -3.0974  -2.9450   1.5481   1.6012   2.9212   4.3366
    11.2856  12.2191  15.9698  16.2479

     occupation numbers 
     1.0000   1.0000   1.0000   1.0000   1.0000   1.0000   1.0000   1.0000
     0.0000   0.0000   0.0000   0.0000

     the Fermi energy is     7.1745 ev

!    total energy              =     -45.70785814 Ry
     Harris-Foulkes estimate   =     -45.70785814 Ry
     estimated scf accuracy    <          4.3E-10 Ry

     The total energy is the sum of the following terms:

     one-electron contribution =      -8.47065337 Ry
     hartree contribution      =      12.56683030 Ry
     xc contribution           =     -14.11393795 Ry
     ewald contribution        =     -35.69051425 Ry
     smearing contrib. (-TS)   =       0.00041713 Ry

     convergence has been achieved in  11 iterations

     Forces acting on atoms (cartesian axes, Ry/au):

     atom    1 type  1   force =    -0.00000000   -0.00000000   -0.00000000
     atom    2 type  1   force =     0.00000000    0.00000000    0.00000000
     atom    3 type  1   force =    -0.00000000   -0.00000000   -0.00000000
     atom    4 type  1   force =     0.00000000    0.00000000    0.00000000
     The non-local contrib.  to forces
     atom    1 type  1   force =    -0.00000000   -0.00000000   -0.00000000
     atom    2 type  1   force =     0.00000000    0.00000000    0.00000000
     atom    3 type  1   force =    -0.00000000    0.00000000    0.00000000
     atom    4 type  1   force =    -0.00000000   -0.00000000   -0.00000000
     The ionic contribution  to forces
     atom    1 type  1   force =     0.00000895   -0.00000516   -0.00000000
     atom    2 type  1   force =    -0.00000898    0.00000518   -0.00000000
     atom    3 type  1   force =    -0.00000895    0.00000516    0.00000000
     atom    4 type  1   force =     0.00000898   -0.00000518    0.00000000
     The local contribution  to forces
     atom    1 type  1   force =    -0.00000000    0.00000000   -0.00000000
     atom    2 type  1   force =    -0.00000641    0.00000370   -0.00000000
     atom    3 type  1   force =    -0.00000000   -0.00000000    0.00000000
     atom    4 type  1   force =     0.00000641   -0.00000370    0.00000000
     The core correction contribution to forces
     atom    1 type  1   force =     0.00000000    0.00000000    0.00000000
     atom    2 type  1   force =     0.00000000    0.00000000    0.00000000
     atom    3 type  1   force =     0.00000000    0.00000000    0.00000000
     atom    4 type  1   force =     0.00000000    0.00000000    0.00000000
     The Hubbard contrib.    to forces
     atom    1 type  1   force =     0.00000000    0.00000000    0.00000000
     atom    2 type  1   force =     0.00000000    0.00000000    0.00000000
     atom    3 type  1   force =     0.00000000    0.00000000    0.00000000
     atom    4 type  1   force =     0.00000000    0.00000000    0.00000000
     The SCF correction term to forces
     atom    1 type  1   force =    -0.00000000    0.00000000   -0.00000000
     atom    2 type  1   force =     0.00000000   -0.00000000   -0.00000000
     atom    3 type  1   force =     0.00000000   -0.00000000   -0.00000000
     atom    4 type  1   force =    -0.00000000    0.00000000   -0.00000000

     Total force =     0.000000     Total SCF correction =     0.000000


     Computing stress (Cartesian axis) and pressure

          total   stress  (Ry/bohr**3)                   (kbar)     P=  127.32
   0.00130564   0.00000000   0.00000000        192.07      0.00      0.00
   0.00000000   0.00130564   0.00000000          0.00    192.07      0.00
   0.00000000   0.00000000  -0.00001472          0.00      0.00     -2.17

     kinetic stress (kbar)  12318.33      0.00      0.00
                                0.00  12318.33      0.00
                               -0.00     -0.00  14014.37

     local   stress (kbar) -24210.28      0.01     -0.00
                                0.01 -24210.26      0.00
                               -0.00      0.00  22337.58

     nonloc. stress (kbar)   4294.04      0.00     -0.00
                                0.00   4294.04     -0.00
                               -0.00     -0.00   3741.00

     hartree stress (kbar)   7465.38      0.00     -0.00
                                0.00   7465.38     -0.00
                               -0.00     -0.00  -6408.46

     exc-cor stress (kbar)  -2944.55      0.00      0.00
                                0.00  -2944.55      0.00
                                0.00      0.00  -2944.55

     corecor stress (kbar)      0.00      0.00      0.00
                                0.00      0.00      0.00
                                0.00      0.00      0.00

     ewald   stress (kbar)   3269.16     -0.03      0.00
                               -0.03   3269.13      0.00
                                0.00      0.00 -30742.10

     hubbard stress (kbar)      0.00      0.00      0.00
                                0.00      0.00      0.00
                                0.00      0.00      0.00

     london  stress (kbar)      0.00      0.00      0.00
                                0.00      0.00      0.00
                                0.00      0.00      0.00

     DFT-D3  stress (kbar)      0.00      0.00      0.00
                                0.00      0.00      0.00
                                0.00      0.00      0.00

     XDM     stress (kbar)      0.00      0.00      0.00
                                0.00      0.00      0.00
                                0.00      0.00      0.00

     dft-nl  stress (kbar)      0.00      0.00      0.00
                                0.00      0.00      0.00
                                0.00      0.00      0.00

     TS-vdW  stress (kbar)      0.00      0.00      0.00
                                0.00      0.00      0.00
                                0.00      0.00      0.00



     number of scf cycles    =   2
     number of bfgs steps    =   1

     enthalpy old            =     -45.7092486106 Ry
     enthalpy new            =     -45.7078581405 Ry

     CASE: enthalpy_new > enthalpy_old

     new trust radius        =       0.0320552361 bohr
     new conv_thr            =       0.0000000010 Ry

     new unit-cell volume =    222.98474 a.u.^3 (    33.04293 Ang^3 )
     density =      2.41440 g/cm^3

CELL_PARAMETERS (alat=  4.66006464)
   0.989379353  -0.000000000   0.000000000
  -0.494689677   0.856827654   0.000000000
   0.000000000  -0.000000000   2.599219785

ATOMIC_POSITIONS (crystal)
C        0.000000000   1.000000000   0.750000000
C        0.666667000   0.333333000   0.750000000
C        0.000000000   1.000000000   0.250000000
C        0.333333000   0.666667000   0.250000000



     Writing output data file graphite.save/
     NEW-OLD atomic charge density approx. for the potential
     extrapolated charge   16.43526, renormalised to   16.00000

     total cpu time spent up to now is        2.9 secs

     Self-consistent Calculation

     iteration #  1     ecut=    30.00 Ry     beta= 0.30
     Davidson diagonalization with overlap
     ethr =  1.00E-06,  avg # of iterations =  6.3

     total cpu time spent up to now is        3.0 secs

     total energy              =     -45.70379095 Ry
     Harris-Foulkes estimate   =     -45.54247270 Ry
     estimated scf accuracy    <       0.00607700 Ry

     iteration #  2     ecut=    30.00 Ry     beta= 0.30
     Davidson diagonalization with overlap
     ethr =  3.80E-05,  avg # of iterations =  4.3

     total cpu time spent up to now is        3.0 secs

     total energy              =     -45.71172363 Ry
     Harris-Foulkes estimate   =     -45.71187549 Ry
     estimated scf accuracy    <       0.00051842 Ry

     iteration #  3     ecut=    30.00 Ry     beta= 0.30
     Davidson diagonalization with overlap
     ethr =  3.24E-06,  avg # of iterations =  4.5

     total cpu time spent up to now is        3.1 secs

     total energy              =     -45.71159518 Ry
     Harris-Foulkes estimate   =     -45.71174836 Ry
     estimated scf accuracy    <       0.00023007 Ry

     iteration #  4     ecut=    30.00 Ry     beta= 0.30
     Davidson diagonalization with overlap
     ethr =  1.44E-06,  avg # of iterations =  2.5

     total cpu time spent up to now is        3.2 secs

     total energy              =     -45.71164161 Ry
     Harris-Foulkes estimate   =     -45.71163812 Ry
     estimated scf accuracy    <       0.00000098 Ry

     iteration #  5     ecut=    30.00 Ry     beta= 0.30
     Davidson diagonalization with overlap
     c_bands:  1 eigenvalues not converged
     ethr =  6.12E-09,  avg # of iterations =  5.8

     total cpu time spent up to now is        3.3 secs

     total energy              =     -45.71163955 Ry
     Harris-Foulkes estimate   =     -45.71164425 Ry
     estimated scf accuracy    <       0.00001056 Ry

     iteration #  6     ecut=    30.00 Ry     beta= 0.30
     Davidson diagonalization with overlap
     ethr =  6.12E-09,  avg # of iterations =  4.2

     total cpu time spent up to now is        3.4 secs

     total energy              =     -45.71163925 Ry
     Harris-Foulkes estimate   =     -45.71164014 Ry
     estimated scf accuracy    <       0.00000189 Ry

     iteration #  7     ecut=    30.00 Ry     beta= 0.30
     Davidson diagonalization with overlap
     ethr =  6.12E-09,  avg # of iterations =  2.0

     total cpu time spent up to now is        3.4 secs

     total energy              =     -45.71163925 Ry
     Harris-Foulkes estimate   =     -45.71163936 Ry
     estimated scf accuracy    <       0.00000028 Ry

     iteration #  8     ecut=    30.00 Ry     beta= 0.30
     Davidson diagonalization with overlap
     ethr =  1.78E-09,  avg # of iterations =  1.8

     total cpu time spent up to now is        3.5 secs

     total energy              =     -45.71163922 Ry
     Harris-Foulkes estimate   =     -45.71163928 Ry
     estimated scf accuracy    <       0.00000008 Ry

     iteration #  9     ecut=    30.00 Ry     beta= 0.30
     Davidson diagonalization with overlap
     ethr =  4.82E-10,  avg # of iterations =  4.7

     total cpu time spent up to now is        3.6 secs

     total energy              =     -45.71163927 Ry
     Harris-Foulkes estimate   =     -45.71163927 Ry
     estimated scf accuracy    <       0.00000003 Ry

     iteration # 10     ecut=    30.00 Ry     beta= 0.30
     Davidson diagonalization with overlap
     ethr =  1.82E-10,  avg # of iterations =  1.0

     total cpu time spent up to now is        3.6 secs

     total energy              =     -45.71163926 Ry
     Harris-Foulkes estimate   =     -45.71163927 Ry
     estimated scf accuracy    <       0.00000002 Ry

     iteration # 11     ecut=    30.00 Ry     beta= 0.30
     Davidson diagonalization with overlap
     ethr =  1.11E-10,  avg # of iterations =  2.0

     total cpu time spent up to now is        3.7 secs

     End of self-consistent calculation

          k = 0.1263 0.2188 0.0962 (   626 PWs)   bands (ev):

   -11.0759 -10.7834   0.1575   1.2895   1.3351   1.8450   2.2706   2.3034
    13.8699  15.6440  16.0190  16.7760

     occupation numbers 
     1.0000   1.0000   1.0000   1.0000   1.0000   1.0000   1.0000   1.0000
     0.0000   0.0000   0.0000   0.0000

          k = 0.1263 0.5106 0.0962 (   635 PWs)   bands (ev):

    -7.4729  -7.2496  -4.6075  -4.4366  -0.0651   0.0203   4.2623   5.3698
     9.3642  10.1179  16.5858  17.0159

     occupation numbers 
     1.0000   1.0000   1.0000   1.0000   1.0000   1.0000   1.0000   1.0000
     0.0000   0.0000   0.0000   0.0000

          k = 0.1263-0.3647 0.0962 (   638 PWs)   bands (ev):

    -9.6025  -9.3370  -1.5379  -1.4209   0.7132   0.7857   1.9240   3.4729
    12.4407  13.0768  15.5685  16.9096

     occupation numbers 
     1.0000   1.0000   1.0000   1.0000   1.0000   1.0000   1.0000   1.0000
     0.0000   0.0000   0.0000   0.0000

          k = 0.1263-0.0729 0.0962 (   616 PWs)   bands (ev):

   -11.8234 -11.5171  -0.7543   0.9870   3.0618   3.1121   3.7068   3.7438
    13.0035  15.9862  16.1343  17.4598

     occupation numbers 
     1.0000   1.0000   1.0000   1.0000   1.0000   1.0000   1.0000   1.0000
     0.0000   0.0000   0.0000   0.0000

          k = 0.3790 0.6565 0.0962 (   638 PWs)   bands (ev):

    -5.7625  -5.6551  -4.9860  -4.9305  -2.4492  -2.3331   6.0228   6.6360
     8.4282   8.5710  17.9663  18.1776

     occupation numbers 
     1.0000   1.0000   1.0000   1.0000   1.0000   1.0000   1.0007   0.9993
     0.0000   0.0000   0.0000   0.0000

          k = 0.3790-0.2188 0.0962 (   632 PWs)   bands (ev):

    -8.8766  -8.6243  -3.2781  -3.1208   1.3253   1.3819   2.7417   4.1686
    10.8496  11.7765  15.2502  15.5793

     occupation numbers 
     1.0000   1.0000   1.0000   1.0000   1.0000   1.0000   1.0000   1.0000
     0.0000   0.0000   0.0000   0.0000

     the Fermi energy is     6.8862 ev

!    total energy              =     -45.71163926 Ry
     Harris-Foulkes estimate   =     -45.71163926 Ry
     estimated scf accuracy    <          3.6E-10 Ry

     The total energy is the sum of the following terms:

     one-electron contribution =      -8.14205375 Ry
     hartree contribution      =      12.22552513 Ry
     xc contribution           =     -13.99404831 Ry
     ewald contribution        =     -35.80147825 Ry
     smearing contrib. (-TS)   =       0.00041593 Ry

     convergence has been achieved in  11 iterations

     Forces acting on atoms (cartesian axes, Ry/au):

     atom    1 type  1   force =     0.00000000   -0.00000000   -0.00000000
     atom    2 type  1   force =     0.00000000    0.00000000    0.00000000
     atom    3 type  1   force =    -0.00000000   -0.00000000   -0.00000000
     atom    4 type  1   force =     0.00000000    0.00000000    0.00000000
     The non-local contrib.  to forces
     atom    1 type  1   force =    -0.00000000    0.00000000    0.00000000
     atom    2 type  1   force =     0.00000000    0.00000000    0.00000000
     atom    3 type  1   force =     0.00000000    0.00000000    0.00000000
     atom    4 type  1   force =    -0.00000000    0.00000000    0.00000000
     The ionic contribution  to forces
     atom    1 type  1   force =     0.00000870   -0.00000503   -0.00000000
     atom    2 type  1   force =    -0.00000874    0.00000505   -0.00000000
     atom    3 type  1   force =    -0.00000870    0.00000503    0.00000000
     atom    4 type  1   force =     0.00000874   -0.00000505    0.00000000
     The local contribution  to forces
     atom    1 type  1   force =    -0.00000000    0.00000000   -0.00000000
     atom    2 type  1   force =    -0.00000667    0.00000385   -0.00000000
     atom    3 type  1   force =    -0.00000000   -0.00000000   -0.00000000
     atom    4 type  1   force =     0.00000667   -0.00000385   -0.00000000
     The core correction contribution to forces
     atom    1 type  1   force =     0.00000000    0.00000000    0.00000000
     atom    2 type  1   force =     0.00000000    0.00000000    0.00000000
     atom    3 type  1   force =     0.00000000    0.00000000    0.00000000
     atom    4 type  1   force =     0.00000000    0.00000000    0.00000000
     The Hubbard contrib.    to forces
     atom    1 type  1   force =     0.00000000    0.00000000    0.00000000
     atom    2 type  1   force =     0.00000000    0.00000000    0.00000000
     atom    3 type  1   force =     0.00000000    0.00000000    0.00000000
     atom    4 type  1   force =     0.00000000    0.00000000    0.00000000
     The SCF correction term to forces
     atom    1 type  1   force =     0.00000000   -0.00000000   -0.00000000
     atom    2 type  1   force =    -0.00000000    0.00000000   -0.00000000
     atom    3 type  1   force =    -0.00000000    0.00000000   -0.00000000
     atom    4 type  1   force =     0.00000000   -0.00000000   -0.00000000

     Total force =     0.000000     Total SCF correction =     0.000000


     Computing stress (Cartesian axis) and pressure

          total   stress  (Ry/bohr**3)                   (kbar)     P=   -2.90
  -0.00002160  -0.00000000  -0.00000000         -3.18     -0.00     -0.00
  -0.00000000  -0.00002160   0.00000000         -0.00     -3.18      0.00
   0.00000000  -0.00000000  -0.00001594          0.00     -0.00     -2.34

     kinetic stress (kbar)  11788.61      0.00      0.00
                                0.00  11788.61      0.00
                                0.00      0.00  13515.54

     local   stress (kbar) -22838.02      0.01      0.00
                                0.01 -22838.01      0.00
                                0.00      0.00  20772.85

     nonloc. stress (kbar)   4128.46      0.00     -0.00
                                0.00   4128.46      0.00
                                0.00      0.00   3615.89

     hartree stress (kbar)   7011.48      0.00     -0.00
                                0.00   7011.48      0.00
                               -0.00      0.00  -5957.67

     exc-cor stress (kbar)  -2839.27      0.00      0.00
                                0.00  -2839.27      0.00
                                0.00      0.00  -2839.27

     corecor stress (kbar)      0.00      0.00      0.00
                                0.00      0.00      0.00
                                0.00      0.00      0.00

     ewald   stress (kbar)   2745.57     -0.03     -0.00
                               -0.03   2745.54     -0.00
                               -0.00     -0.00 -29109.68

     hubbard stress (kbar)      0.00      0.00      0.00
                                0.00      0.00      0.00
                                0.00      0.00      0.00

     london  stress (kbar)      0.00      0.00      0.00
                                0.00      0.00      0.00
                                0.00      0.00      0.00

     DFT-D3  stress (kbar)      0.00      0.00      0.00
                                0.00      0.00      0.00
                                0.00      0.00      0.00

     XDM     stress (kbar)      0.00      0.00      0.00
                                0.00      0.00      0.00
                                0.00      0.00      0.00

     dft-nl  stress (kbar)      0.00      0.00      0.00
                                0.00      0.00      0.00
                                0.00      0.00      0.00

     TS-vdW  stress (kbar)      0.00      0.00      0.00
                                0.00      0.00      0.00
                                0.00      0.00      0.00



     number of scf cycles    =   3
     number of bfgs steps    =   1

     enthalpy old            =     -45.7092486106 Ry
     enthalpy new            =     -45.7116392571 Ry

     CASE: enthalpy_new < enthalpy_old

     new trust radius        =       0.0011741196 bohr
     new conv_thr            =            1.0E-11 Ry

     new unit-cell volume =    222.78787 a.u.^3 (    33.01376 Ang^3 )
     density =      2.41654 g/cm^3

CELL_PARAMETERS (alat=  4.66006464)
   0.989136945  -0.000000000   0.000000000
  -0.494568472   0.856617722  -0.000000000
  -0.000000000  -0.000000000   2.598197933

ATOMIC_POSITIONS (crystal)
C        0.000000000   1.000000000   0.750000000
C        0.666667000   0.333333000   0.750000000
C        0.000000000   1.000000000   0.250000000
C        0.333333000   0.666667000   0.250000000



     Writing output data file graphite.save/
     NEW-OLD atomic charge density approx. for the potential
     extrapolated charge   15.98586, renormalised to   16.00000

     total cpu time spent up to now is        4.3 secs

     Self-consistent Calculation

     iteration #  1     ecut=    30.00 Ry     beta= 0.30
     Davidson diagonalization with overlap
     ethr =  1.00E-06,  avg # of iterations =  2.0

     Threshold (ethr) on eigenvalues was too large:
     Diagonalizing with lowered threshold

     Davidson diagonalization with overlap
     ethr =  2.71E-08,  avg # of iterations =  1.0

     total cpu time spent up to now is        4.4 secs

     total energy              =     -45.71163457 Ry
     Harris-Foulkes estimate   =     -45.71706707 Ry
     estimated scf accuracy    <       0.00000437 Ry

     iteration #  2     ecut=    30.00 Ry     beta= 0.30
     Davidson diagonalization with overlap
     ethr =  2.73E-08,  avg # of iterations =  3.0

     total cpu time spent up to now is        4.5 secs

     total energy              =     -45.71164190 Ry
     Harris-Foulkes estimate   =     -45.71164212 Ry
     estimated scf accuracy    <       0.00000081 Ry

     iteration #  3     ecut=    30.00 Ry     beta= 0.30
     Davidson diagonalization with overlap
     ethr =  5.03E-09,  avg # of iterations =  1.0

     total cpu time spent up to now is        4.6 secs

     total energy              =     -45.71164165 Ry
     Harris-Foulkes estimate   =     -45.71164192 Ry
     estimated scf accuracy    <       0.00000040 Ry

     iteration #  4     ecut=    30.00 Ry     beta= 0.30
     Davidson diagonalization with overlap
     ethr =  2.49E-09,  avg # of iterations =  2.0

     total cpu time spent up to now is        4.7 secs

     total energy              =     -45.71164175 Ry
     Harris-Foulkes estimate   =     -45.71164176 Ry
     estimated scf accuracy    <       0.00000003 Ry

     iteration #  5     ecut=    30.00 Ry     beta= 0.30
     Davidson diagonalization with overlap
     ethr =  1.75E-10,  avg # of iterations =  2.0

     total cpu time spent up to now is        4.7 secs

     total energy              =     -45.71164175 Ry
     Harris-Foulkes estimate   =     -45.71164175 Ry
     estimated scf accuracy    <          3.5E-09 Ry

     iteration #  6     ecut=    30.00 Ry     beta= 0.30
     Davidson diagonalization with overlap
     ethr =  2.21E-11,  avg # of iterations =  1.3

     total cpu time spent up to now is        4.8 secs

     total energy              =     -45.71164175 Ry
     Harris-Foulkes estimate   =     -45.71164175 Ry
     estimated scf accuracy    <          2.0E-09 Ry

     iteration #  7     ecut=    30.00 Ry     beta= 0.30
     Davidson diagonalization with overlap
     ethr =  1.28E-11,  avg # of iterations =  2.0

     total cpu time spent up to now is        4.9 secs

     total energy              =     -45.71164175 Ry
     Harris-Foulkes estimate   =     -45.71164175 Ry
     estimated scf accuracy    <          1.7E-11 Ry

     iteration #  8     ecut=    30.00 Ry     beta= 0.30
     Davidson diagonalization with overlap
     ethr =  1.07E-13,  avg # of iterations =  3.0

     total cpu time spent up to now is        5.0 secs

     End of self-consistent calculation

          k = 0.1264 0.2189 0.0962 (   626 PWs)   bands (ev):

   -11.0712 -10.7781   0.1625   1.2993   1.3451   1.8527   2.2798   2.3126
    13.8829  15.6597  16.0355  16.7919

     occupation numbers 
     1.0000   1.0000   1.0000   1.0000   1.0000   1.0000   1.0000   1.0000
     0.0000   0.0000   0.0000   0.0000

          k = 0.1264 0.5107 0.0962 (   635 PWs)   bands (ev):

    -7.4664  -7.2426  -4.6005  -4.4291  -0.0571   0.0285   4.2699   5.3794
     9.3750  10.1301  16.6034  17.0343

     occupation numbers 
     1.0000   1.0000   1.0000   1.0000   1.0000   1.0000   1.0000   1.0000
     0.0000   0.0000   0.0000   0.0000

          k = 0.1264-0.3648 0.0962 (   638 PWs)   bands (ev):

    -9.5972  -9.3311  -1.5293  -1.4120   0.7216   0.7942   1.9300   3.4815
    12.4537  13.0912  15.5820  16.9268

     occupation numbers 
     1.0000   1.0000   1.0000   1.0000   1.0000   1.0000   1.0000   1.0000
     0.0000   0.0000   0.0000   0.0000

          k = 0.1264-0.0730 0.0962 (   616 PWs)   bands (ev):

   -11.8191 -11.5120  -0.7499   0.9942   3.0721   3.1226   3.7170   3.7541
    13.0162  16.0018  16.1504  17.4762

     occupation numbers 
     1.0000   1.0000   1.0000   1.0000   1.0000   1.0000   1.0000   1.0000
     0.0000   0.0000   0.0000   0.0000

          k = 0.3791 0.6567 0.0962 (   638 PWs)   bands (ev):

    -5.7545  -5.6468  -4.9791  -4.9234  -2.4428  -2.3263   6.0317   6.6460
     8.4391   8.5822  17.9786  18.1908

     occupation numbers 
     1.0000   1.0000   1.0000   1.0000   1.0000   1.0000   1.0007   0.9993
     0.0000   0.0000   0.0000   0.0000

          k = 0.3791-0.2189 0.0962 (   632 PWs)   bands (ev):

    -8.8709  -8.6180  -3.2704  -3.1128   1.3339   1.3906   2.7483   4.1776
    10.8611  11.7899  15.2672  15.5969

     occupation numbers 
     1.0000   1.0000   1.0000   1.0000   1.0000   1.0000   1.0000   1.0000
     0.0000   0.0000   0.0000   0.0000

     the Fermi energy is     6.8961 ev

!    total energy              =     -45.71164175 Ry
     Harris-Foulkes estimate   =     -45.71164175 Ry
     estimated scf accuracy    <          8.0E-13 Ry

     The total energy is the sum of the following terms:

     one-electron contribution =      -8.11880904 Ry
     hartree contribution      =      12.21981835 Ry
     xc contribution           =     -13.99627538 Ry
     ewald contribution        =     -35.81679146 Ry
     smearing contrib. (-TS)   =       0.00041579 Ry

     convergence has been achieved in   8 iterations

     Forces acting on atoms (cartesian axes, Ry/au):

     atom    1 type  1   force =     0.00000000   -0.00000000   -0.00000000
     atom    2 type  1   force =     0.00000000    0.00000000    0.00000000
     atom    3 type  1   force =    -0.00000000   -0.00000000   -0.00000000
     atom    4 type  1   force =     0.00000000    0.00000000    0.00000000
     The non-local contrib.  to forces
     atom    1 type  1   force =     0.00000000    0.00000000    0.00000000
     atom    2 type  1   force =     0.00000000    0.00000000    0.00000000
     atom    3 type  1   force =    -0.00000000    0.00000000   -0.00000000
     atom    4 type  1   force =    -0.00000000   -0.00000000   -0.00000000
     The ionic contribution  to forces
     atom    1 type  1   force =     0.00000871   -0.00000503   -0.00000000
     atom    2 type  1   force =    -0.00000874    0.00000505   -0.00000000
     atom    3 type  1   force =    -0.00000871    0.00000503    0.00000000
     atom    4 type  1   force =     0.00000874   -0.00000505    0.00000000
     The local contribution  to forces
     atom    1 type  1   force =    -0.00000000    0.00000000   -0.00000000
     atom    2 type  1   force =    -0.00000666    0.00000385   -0.00000000
     atom    3 type  1   force =    -0.00000000   -0.00000000   -0.00000000
     atom    4 type  1   force =     0.00000666   -0.00000385   -0.00000000
     The core correction contribution to forces
     atom    1 type  1   force =     0.00000000    0.00000000    0.00000000
     atom    2 type  1   force =     0.00000000    0.00000000    0.00000000
     atom    3 type  1   force =     0.00000000    0.00000000    0.00000000
     atom    4 type  1   force =     0.00000000    0.00000000    0.00000000
     The Hubbard contrib.    to forces
     atom    1 type  1   force =     0.00000000    0.00000000    0.00000000
     atom    2 type  1   force =     0.00000000    0.00000000    0.00000000
     atom    3 type  1   force =     0.00000000    0.00000000    0.00000000
     atom    4 type  1   force =     0.00000000    0.00000000    0.00000000
     The SCF correction term to forces
     atom    1 type  1   force =     0.00000000   -0.00000000   -0.00000000
     atom    2 type  1   force =    -0.00000000    0.00000000   -0.00000000
     atom    3 type  1   force =    -0.00000000    0.00000000    0.00000000
     atom    4 type  1   force =     0.00000000   -0.00000000    0.00000000

     Total force =     0.000000     Total SCF correction =     0.000000


     Computing stress (Cartesian axis) and pressure

          total   stress  (Ry/bohr**3)                   (kbar)     P=   -0.63
   0.00000098   0.00000000  -0.00000000          0.14      0.00     -0.00
   0.00000000   0.00000098   0.00000000          0.00      0.14      0.00
   0.00000000  -0.00000000  -0.00001472          0.00     -0.00     -2.17

     kinetic stress (kbar)  11802.43      0.00     -0.00
                                0.00  11802.43      0.00
                               -0.00      0.00  13529.63

     local   stress (kbar) -22851.82      0.01      0.00
                                0.01 -22851.80     -0.00
                                0.00     -0.00  20789.28

     nonloc. stress (kbar)   4133.02     -0.00      0.00
                               -0.00   4133.02      0.00
                                0.00     -0.00   3619.56

     hartree stress (kbar)   7014.40     -0.00     -0.00
                               -0.00   7014.40      0.00
                               -0.00      0.00  -5960.14

     exc-cor stress (kbar)  -2842.25      0.00      0.00
                                0.00  -2842.25      0.00
                                0.00      0.00  -2842.25

     corecor stress (kbar)      0.00      0.00      0.00
                                0.00      0.00      0.00
                                0.00      0.00      0.00

     ewald   stress (kbar)   2744.37     -0.03     -0.00
                               -0.03   2744.34     -0.00
                               -0.00     -0.00 -29138.25

     hubbard stress (kbar)      0.00      0.00      0.00
                                0.00      0.00      0.00
                                0.00      0.00      0.00

     london  stress (kbar)      0.00      0.00      0.00
                                0.00      0.00      0.00
                                0.00      0.00      0.00

     DFT-D3  stress (kbar)      0.00      0.00      0.00
                                0.00      0.00      0.00
                                0.00      0.00      0.00

     XDM     stress (kbar)      0.00      0.00      0.00
                                0.00      0.00      0.00
                                0.00      0.00      0.00

     dft-nl  stress (kbar)      0.00      0.00      0.00
                                0.00      0.00      0.00
                                0.00      0.00      0.00

     TS-vdW  stress (kbar)      0.00      0.00      0.00
                                0.00      0.00      0.00
                                0.00      0.00      0.00



     number of scf cycles    =   4
     number of bfgs steps    =   2

     enthalpy old            =     -45.7116392571 Ry
     enthalpy new            =     -45.7116417486 Ry

     CASE: enthalpy_new < enthalpy_old

     new trust radius        =       0.0021102677 bohr
     new conv_thr            =            1.0E-11 Ry

     new unit-cell volume =    222.58663 a.u.^3 (    32.98394 Ang^3 )
     density =      2.41872 g/cm^3

CELL_PARAMETERS (alat=  4.66006464)
   0.989039758  -0.000000000   0.000000000
  -0.494519879   0.856533555  -0.000000000
  -0.000000000   0.000000000   2.596361251

ATOMIC_POSITIONS (crystal)
C        0.000000000   1.000000000   0.750000000
C        0.666667000   0.333333000   0.750000000
C        0.000000000   1.000000000   0.250000000
C        0.333333000   0.666667000   0.250000000



     Writing output data file graphite.save/
     NEW-OLD atomic charge density approx. for the potential
     extrapolated charge   15.98553, renormalised to   16.00000

     total cpu time spent up to now is        5.4 secs

     Self-consistent Calculation

     iteration #  1     ecut=    30.00 Ry     beta= 0.30
     Davidson diagonalization with overlap
     ethr =  1.00E-06,  avg # of iterations =  2.0

     Threshold (ethr) on eigenvalues was too large:
     Diagonalizing with lowered threshold

     Davidson diagonalization with overlap
     ethr =  2.24E-08,  avg # of iterations =  1.3

     total cpu time spent up to now is        5.5 secs

     total energy              =     -45.71163647 Ry
     Harris-Foulkes estimate   =     -45.71715917 Ry
     estimated scf accuracy    <       0.00000358 Ry

     iteration #  2     ecut=    30.00 Ry     beta= 0.30
     Davidson diagonalization with overlap
     ethr =  2.24E-08,  avg # of iterations =  3.0

     total cpu time spent up to now is        5.6 secs

     total energy              =     -45.71164385 Ry
     Harris-Foulkes estimate   =     -45.71164415 Ry
     estimated scf accuracy    <       0.00000119 Ry

     iteration #  3     ecut=    30.00 Ry     beta= 0.30
     Davidson diagonalization with overlap
     ethr =  7.41E-09,  avg # of iterations =  1.0

     total cpu time spent up to now is        5.6 secs

     total energy              =     -45.71164343 Ry
     Harris-Foulkes estimate   =     -45.71164387 Ry
     estimated scf accuracy    <       0.00000063 Ry

     iteration #  4     ecut=    30.00 Ry     beta= 0.30
     Davidson diagonalization with overlap
     ethr =  3.96E-09,  avg # of iterations =  2.0

     total cpu time spent up to now is        5.7 secs

     total energy              =     -45.71164359 Ry
     Harris-Foulkes estimate   =     -45.71164362 Ry
     estimated scf accuracy    <       0.00000006 Ry

     iteration #  5     ecut=    30.00 Ry     beta= 0.30
     Davidson diagonalization with overlap
     ethr =  3.95E-10,  avg # of iterations =  2.0

     total cpu time spent up to now is        5.7 secs

     total energy              =     -45.71164359 Ry
     Harris-Foulkes estimate   =     -45.71164360 Ry
     estimated scf accuracy    <       0.00000001 Ry

     iteration #  6     ecut=    30.00 Ry     beta= 0.30
     Davidson diagonalization with overlap
     ethr =  7.37E-11,  avg # of iterations =  1.8

     total cpu time spent up to now is        5.8 secs

     total energy              =     -45.71164359 Ry
     Harris-Foulkes estimate   =     -45.71164359 Ry
     estimated scf accuracy    <          3.3E-09 Ry

     iteration #  7     ecut=    30.00 Ry     beta= 0.30
     Davidson diagonalization with overlap
     ethr =  2.07E-11,  avg # of iterations =  2.2

     total cpu time spent up to now is        5.8 secs

     total energy              =     -45.71164359 Ry
     Harris-Foulkes estimate   =     -45.71164359 Ry
     estimated scf accuracy    <          7.8E-10 Ry

     iteration #  8     ecut=    30.00 Ry     beta= 0.30
     Davidson diagonalization with overlap
     ethr =  4.89E-12,  avg # of iterations =  2.7

     total cpu time spent up to now is        5.9 secs

     End of self-consistent calculation

          k = 0.1264 0.2189 0.0963 (   626 PWs)   bands (ev):

   -11.0634 -10.7688   0.1690   1.3097   1.3558   1.8647   2.2900   2.3230
    13.9016  15.6715  16.0490  16.8050

     occupation numbers 
     1.0000   1.0000   1.0000   1.0000   1.0000   1.0000   1.0000   1.0000
     0.0000   0.0000   0.0000   0.0000

          k = 0.1264 0.5108 0.0963 (   635 PWs)   bands (ev):

    -7.4578  -7.2327  -4.5915  -4.4191  -0.0475   0.0386   4.2779   5.3912
     9.3850  10.1426  16.6162  17.0490

     occupation numbers 
     1.0000   1.0000   1.0000   1.0000   1.0000   1.0000   1.0000   1.0000
     0.0000   0.0000   0.0000   0.0000

          k = 0.1264-0.3648 0.0963 (   638 PWs)   bands (ev):

    -9.5891  -9.3216  -1.5195  -1.4016   0.7313   0.8044   1.9371   3.4937
    12.4643  13.1042  15.5999  16.9397

     occupation numbers 
     1.0000   1.0000   1.0000   1.0000   1.0000   1.0000   1.0000   1.0000
     0.0000   0.0000   0.0000   0.0000

          k = 0.1264-0.0730 0.0963 (   616 PWs)   bands (ev):

   -11.8115 -11.5028  -0.7436   1.0061   3.0827   3.1335   3.7276   3.7649
    13.0351  16.0145  16.1637  17.4892

     occupation numbers 
     1.0000   1.0000   1.0000   1.0000   1.0000   1.0000   1.0000   1.0000
     0.0000   0.0000   0.0000   0.0000

          k = 0.3792 0.6567 0.0963 (   638 PWs)   bands (ev):

    -5.7450  -5.6368  -4.9698  -4.9138  -2.4338  -2.3167   6.0404   6.6568
     8.4499   8.5940  17.9904  18.2037

     occupation numbers 
     1.0000   1.0000   1.0000   1.0000   1.0000   1.0000   1.0006   0.9994
     0.0000   0.0000   0.0000   0.0000

          k = 0.3792-0.2189 0.0963 (   632 PWs)   bands (ev):

    -8.8626  -8.6084  -3.2611  -3.1026   1.3438   1.4008   2.7556   4.1897
    10.8710  11.8031  15.2800  15.6114

     occupation numbers 
     1.0000   1.0000   1.0000   1.0000   1.0000   1.0000   1.0000   1.0000
     0.0000   0.0000   0.0000   0.0000

     the Fermi energy is     6.9069 ev

!    total energy              =     -45.71164359 Ry
     Harris-Foulkes estimate   =     -45.71164359 Ry
     estimated scf accuracy    <          3.5E-12 Ry

     The total energy is the sum of the following terms:

     one-electron contribution =      -8.06865926 Ry
     hartree contribution      =      12.20109947 Ry
     xc contribution           =     -13.99732363 Ry
     ewald contribution        =     -35.84717570 Ry
     smearing contrib. (-TS)   =       0.00041552 Ry

     convergence has been achieved in   8 iterations

     Forces acting on atoms (cartesian axes, Ry/au):

     atom    1 type  1   force =    -0.00000000   -0.00000000   -0.00000000
     atom    2 type  1   force =    -0.00000000   -0.00000000   -0.00000000
     atom    3 type  1   force =     0.00000000    0.00000000    0.00000000
     atom    4 type  1   force =     0.00000000    0.00000000    0.00000000
     The non-local contrib.  to forces
     atom    1 type  1   force =    -0.00000000   -0.00000000   -0.00000000
     atom    2 type  1   force =     0.00000000    0.00000000   -0.00000000
     atom    3 type  1   force =     0.00000000   -0.00000000    0.00000000
     atom    4 type  1   force =     0.00000000    0.00000000   -0.00000000
     The ionic contribution  to forces
     atom    1 type  1   force =     0.00000871   -0.00000503   -0.00000000
     atom    2 type  1   force =    -0.00000874    0.00000505   -0.00000000
     atom    3 type  1   force =    -0.00000871    0.00000503    0.00000000
     atom    4 type  1   force =     0.00000874   -0.00000505    0.00000000
     The local contribution  to forces
     atom    1 type  1   force =    -0.00000000    0.00000000   -0.00000000
     atom    2 type  1   force =    -0.00000666    0.00000385   -0.00000000
     atom    3 type  1   force =     0.00000000   -0.00000000   -0.00000000
     atom    4 type  1   force =     0.00000666   -0.00000385   -0.00000000
     The core correction contribution to forces
     atom    1 type  1   force =     0.00000000    0.00000000    0.00000000
     atom    2 type  1   force =     0.00000000    0.00000000    0.00000000
     atom    3 type  1   force =     0.00000000    0.00000000    0.00000000
     atom    4 type  1   force =     0.00000000    0.00000000    0.00000000
     The Hubbard contrib.    to forces
     atom    1 type  1   force =     0.00000000    0.00000000    0.00000000
     atom    2 type  1   force =     0.00000000    0.00000000    0.00000000
     atom    3 type  1   force =     0.00000000    0.00000000    0.00000000
     atom    4 type  1   force =     0.00000000    0.00000000    0.00000000
     The SCF correction term to forces
     atom    1 type  1   force =     0.00000000   -0.00000000   -0.00000000
     atom    2 type  1   force =    -0.00000000    0.00000000    0.00000000
     atom    3 type  1   force =    -0.00000000    0.00000000   -0.00000000
     atom    4 type  1   force =     0.00000000   -0.00000000   -0.00000000

     Total force =     0.000000     Total SCF correction =     0.000000


     Computing stress (Cartesian axis) and pressure

          total   stress  (Ry/bohr**3)                   (kbar)     P=    0.41
   0.00001008  -0.00000000   0.00000000          1.48     -0.00      0.00
  -0.00000000   0.00001008   0.00000000         -0.00      1.48      0.00
   0.00000000   0.00000000  -0.00001173          0.00      0.00     -1.73

     kinetic stress (kbar)  11814.46     -0.00      0.00
                               -0.00  11814.46      0.00
                                0.00     -0.00  13542.93

     local   stress (kbar) -22843.16      0.01     -0.00
                                0.01 -22843.14     -0.00
                               -0.00     -0.00  20780.65

     nonloc. stress (kbar)   4137.23     -0.00      0.00
                               -0.00   4137.23     -0.00
                                0.00     -0.00   3623.14

     hartree stress (kbar)   7008.58      0.00     -0.00
                                0.00   7008.58     -0.00
                               -0.00     -0.00  -5953.59

     exc-cor stress (kbar)  -2845.04      0.00      0.00
                                0.00  -2845.04      0.00
                                0.00      0.00  -2845.04

     corecor stress (kbar)      0.00      0.00      0.00
                                0.00      0.00      0.00
                                0.00      0.00      0.00

     ewald   stress (kbar)   2729.42     -0.03     -0.00
                               -0.03   2729.39      0.00
                               -0.00      0.00 -29149.81

     hubbard stress (kbar)      0.00      0.00      0.00
                                0.00      0.00      0.00
                                0.00      0.00      0.00

     london  stress (kbar)      0.00      0.00      0.00
                                0.00      0.00      0.00
                                0.00      0.00      0.00

     DFT-D3  stress (kbar)      0.00      0.00      0.00
                                0.00      0.00      0.00
[...]
     i       13
          inversion                                              
     2S3     17   18
          inv.  60 deg rotation - cryst. axis [0,0,1]            
     2S6     19   20
          inv. 120 deg rotation - cryst. axis [0,0,1]            
     s_h     14
          inv. 180 deg rotation - cart. axis [0,0,1]             
     3s_d    16   24   23
          inv. 180 deg rotation - cart. axis [1,0,0]             
     3s_v    15   21   22
          inv. 180 deg rotation - cart. axis [0,1,0]             

   Cartesian axes

     site n.     atom                  positions (alat units)
         1           C   tau(   1) = (  -0.4945619   0.8566064   1.9417980  )
         2           C   tau(   2) = (   0.4945624   0.2855352   1.9417980  )
         3           C   tau(   3) = (  -0.4945619   0.8566064   0.6472660  )
         4           C   tau(   4) = (  -0.0000005   0.5710712   0.6472660  )

   Crystallographic axes

     site n.     atom                  positions (cryst. coord.)
         1           C   tau(   1) = (  0.0000000  1.0000000  0.7500000  )
         2           C   tau(   2) = (  0.6666670  0.3333330  0.7500000  )
         3           C   tau(   3) = (  0.0000000  1.0000000  0.2500000  )
         4           C   tau(   4) = (  0.3333330  0.6666670  0.2500000  )

     number of k points=     6  Marzari-Vanderbilt smearing, width (Ry)=  0.0200
                       cart. coord. in units 2pi/alat
        k(    1) = (   0.1263745   0.2188870   0.0965600), wk =   0.2500000
        k(    2) = (   0.1263745   0.5107363   0.0965600), wk =   0.5000000
        k(    3) = (   0.1263745  -0.3648117   0.0965600), wk =   0.5000000
        k(    4) = (   0.1263745  -0.0729623   0.0965600), wk =   0.2500000
        k(    5) = (   0.3791234   0.6566610   0.0965600), wk =   0.2500000
        k(    6) = (   0.3791234  -0.2188870   0.0965600), wk =   0.2500000

                       cryst. coord.
        k(    1) = (   0.1250000   0.1250000   0.2500000), wk =   0.2500000
        k(    2) = (   0.1250000   0.3750000   0.2500000), wk =   0.5000000
        k(    3) = (   0.1250000  -0.3750000   0.2500000), wk =   0.5000000
        k(    4) = (   0.1250000  -0.1250000   0.2500000), wk =   0.2500000
        k(    5) = (   0.3750000   0.3750000   0.2500000), wk =   0.2500000
        k(    6) = (   0.3750000  -0.3750000   0.2500000), wk =   0.2500000

     Dense  grid:    13943 G-vectors     FFT dimensions: (  24,  24,  60)

     Smooth grid:     4855 G-vectors     FFT dimensions: (  18,  18,  48)

     Dynamical RAM for                 wfc:       0.06 MB

     Dynamical RAM for     wfc (w. buffer):       0.39 MB

     Dynamical RAM for           str. fact:       0.11 MB

     Dynamical RAM for           local pot:       0.05 MB

     Dynamical RAM for          nlocal pot:       0.15 MB

     Dynamical RAM for                qrad:       0.53 MB

     Dynamical RAM for          rho,v,vnew:       0.71 MB

     Dynamical RAM for               rhoin:       0.24 MB

     Dynamical RAM for            rho*nmix:       1.70 MB

     Dynamical RAM for           G-vectors:       0.42 MB

     Dynamical RAM for          h,s,v(r/c):       0.11 MB

     Dynamical RAM for          <psi|beta>:       0.01 MB

     Dynamical RAM for                 psi:       0.23 MB

     Dynamical RAM for                hpsi:       0.23 MB

     Dynamical RAM for                spsi:       0.23 MB

     Dynamical RAM for      wfcinit/wfcrot:       0.16 MB

     Dynamical RAM for           addusdens:       5.00 MB

     Dynamical RAM for          addusforce:       5.70 MB

     Dynamical RAM for         addusstress:       5.32 MB

     Estimated static dynamical RAM per process >       5.18 MB

     Estimated max dynamical RAM per process >      10.88 MB

     Estimated total dynamical RAM >      21.76 MB

     Initial potential from superposition of free atoms

     starting charge   15.99984, renormalised to   16.00000
     Starting wfcs are   16 randomized atomic wfcs

     total cpu time spent up to now is        9.2 secs

     Self-consistent Calculation

     iteration #  1     ecut=    30.00 Ry     beta= 0.30
     Davidson diagonalization with overlap
     c_bands:  1 eigenvalues not converged
     c_bands:  1 eigenvalues not converged
     ethr =  1.00E-06,  avg # of iterations = 15.0

     total cpu time spent up to now is        9.3 secs

     total energy              =     -45.76229476 Ry
     Harris-Foulkes estimate   =     -45.91791678 Ry
     estimated scf accuracy    <       0.44050274 Ry

     iteration #  2     ecut=    30.00 Ry     beta= 0.30
     Davidson diagonalization with overlap
     ethr =  2.75E-03,  avg # of iterations =  1.0

     total cpu time spent up to now is        9.4 secs

     total energy              =     -45.67882283 Ry
     Harris-Foulkes estimate   =     -45.77330492 Ry
     estimated scf accuracy    <       0.15284838 Ry

     iteration #  3     ecut=    30.00 Ry     beta= 0.30
     Davidson diagonalization with overlap
     ethr =  9.55E-04,  avg # of iterations =  2.7

     total cpu time spent up to now is        9.4 secs

     total energy              =     -45.71060244 Ry
     Harris-Foulkes estimate   =     -45.71232826 Ry
     estimated scf accuracy    <       0.00374281 Ry

     iteration #  4     ecut=    30.00 Ry     beta= 0.30
     Davidson diagonalization with overlap
     ethr =  2.34E-05,  avg # of iterations =  3.5

     total cpu time spent up to now is        9.5 secs

     total energy              =     -45.71115962 Ry
     Harris-Foulkes estimate   =     -45.71184639 Ry
     estimated scf accuracy    <       0.00162711 Ry

     iteration #  5     ecut=    30.00 Ry     beta= 0.30
     Davidson diagonalization with overlap
     ethr =  1.02E-05,  avg # of iterations =  1.2

     total cpu time spent up to now is        9.5 secs

     total energy              =     -45.71126787 Ry
     Harris-Foulkes estimate   =     -45.71127979 Ry
     estimated scf accuracy    <       0.00002520 Ry

     iteration #  6     ecut=    30.00 Ry     beta= 0.30
     Davidson diagonalization with overlap
     ethr =  1.58E-07,  avg # of iterations =  3.8

     total cpu time spent up to now is        9.6 secs

     total energy              =     -45.71128778 Ry
     Harris-Foulkes estimate   =     -45.71128761 Ry
     estimated scf accuracy    <       0.00000071 Ry

     iteration #  7     ecut=    30.00 Ry     beta= 0.30
     Davidson diagonalization with overlap
     ethr =  4.43E-09,  avg # of iterations =  2.2

     total cpu time spent up to now is        9.7 secs

     total energy              =     -45.71128763 Ry
     Harris-Foulkes estimate   =     -45.71128790 Ry
     estimated scf accuracy    <       0.00000059 Ry

     iteration #  8     ecut=    30.00 Ry     beta= 0.30
     Davidson diagonalization with overlap
     ethr =  3.70E-09,  avg # of iterations =  1.7

     total cpu time spent up to now is        9.7 secs

     total energy              =     -45.71128766 Ry
     Harris-Foulkes estimate   =     -45.71128767 Ry
     estimated scf accuracy    <       0.00000006 Ry

     iteration #  9     ecut=    30.00 Ry     beta= 0.30
     Davidson diagonalization with overlap
     ethr =  3.84E-10,  avg # of iterations =  2.8

     total cpu time spent up to now is        9.8 secs

     total energy              =     -45.71128767 Ry
     Harris-Foulkes estimate   =     -45.71128767 Ry
     estimated scf accuracy    <          7.1E-09 Ry

     iteration # 10     ecut=    30.00 Ry     beta= 0.30
     Davidson diagonalization with overlap
     ethr =  4.47E-11,  avg # of iterations =  2.3

     total cpu time spent up to now is        9.8 secs

     total energy              =     -45.71128767 Ry
     Harris-Foulkes estimate   =     -45.71128767 Ry
     estimated scf accuracy    <          9.9E-10 Ry

     iteration # 11     ecut=    30.00 Ry     beta= 0.30
     Davidson diagonalization with overlap
     ethr =  6.16E-12,  avg # of iterations =  1.7

     total cpu time spent up to now is        9.9 secs

     total energy              =     -45.71128767 Ry
     Harris-Foulkes estimate   =     -45.71128767 Ry
     estimated scf accuracy    <          5.4E-11 Ry

     iteration # 12     ecut=    30.00 Ry     beta= 0.30
     Davidson diagonalization with overlap
     ethr =  3.35E-13,  avg # of iterations =  3.0

     total cpu time spent up to now is       10.0 secs

     total energy              =     -45.71128767 Ry
     Harris-Foulkes estimate   =     -45.71128767 Ry
     estimated scf accuracy    <          4.2E-11 Ry

     iteration # 13     ecut=    30.00 Ry     beta= 0.30
     Davidson diagonalization with overlap
     ethr =  2.66E-13,  avg # of iterations =  1.0

     total cpu time spent up to now is       10.0 secs

     total energy              =     -45.71128767 Ry
     Harris-Foulkes estimate   =     -45.71128767 Ry
     estimated scf accuracy    <          2.9E-11 Ry

     iteration # 14     ecut=    30.00 Ry     beta= 0.30
     Davidson diagonalization with overlap
     ethr =  1.80E-13,  avg # of iterations =  2.0

     total cpu time spent up to now is       10.1 secs

     End of self-consistent calculation

          k = 0.1264 0.2189 0.0966 (   613 PWs)   bands (ev):

   -11.0331 -10.7323   0.1922   1.3417   1.3886   1.9102   2.3222   2.3560
    13.9698  15.6963  16.0809  16.8364

     occupation numbers 
     1.0000   1.0000   1.0000   1.0000   1.0000   1.0000   1.0000   1.0000
     0.0000   0.0000   0.0000   0.0000

          k = 0.1264 0.5107 0.0966 (   622 PWs)   bands (ev):

    -7.4272  -7.1973  -4.5604  -4.3844  -0.0156   0.0725   4.3019   5.4307
     9.4124  10.1794  16.6412  17.0823

     occupation numbers 
     1.0000   1.0000   1.0000   1.0000   1.0000   1.0000   1.0000   1.0000
     0.0000   0.0000   0.0000   0.0000

          k = 0.1264-0.3648 0.0966 (   618 PWs)   bands (ev):

    -9.5587  -9.2854  -1.4881  -1.3675   0.7634   0.8384   1.9604   3.5376
    12.4898  13.1391  15.6631  16.9671

     occupation numbers 
     1.0000   1.0000   1.0000   1.0000   1.0000   1.0000   1.0000   1.0000
     0.0000   0.0000   0.0000   0.0000

          k = 0.1264-0.0730 0.0966 (   595 PWs)   bands (ev):

   -11.7812 -11.4662  -0.7206   1.0522   3.1148   3.1677   3.7597   3.7985
    13.1057  16.0444  16.1955  17.5200

     occupation numbers 
     1.0000   1.0000   1.0000   1.0000   1.0000   1.0000   1.0000   1.0000
     0.0000   0.0000   0.0000   0.0000

          k = 0.3791 0.6567 0.0966 (   622 PWs)   bands (ev):

    -5.7140  -5.6033  -4.9369  -4.8798  -2.4016  -2.2819   6.0649   6.6899
     8.4809   8.6301  18.0239  18.2407

     occupation numbers 
     1.0000   1.0000   1.0000   1.0000   1.0000   1.0000   1.0005   0.9995
     0.0000   0.0000   0.0000   0.0000

          k = 0.3791-0.2189 0.0966 (   616 PWs)   bands (ev):

    -8.8322  -8.5725  -3.2299  -3.0680   1.3763   1.4346   2.7788   4.2324
    10.8957  11.8405  15.3062  15.6459

     occupation numbers 
     1.0000   1.0000   1.0000   1.0000   1.0000   1.0000   1.0000   1.0000
     0.0000   0.0000   0.0000   0.0000

     the Fermi energy is     6.9401 ev

!    total energy              =     -45.71128767 Ry
     Harris-Foulkes estimate   =     -45.71128767 Ry
     estimated scf accuracy    <          9.5E-13 Ry

     The total energy is the sum of the following terms:

     one-electron contribution =      -7.85731318 Ry
     hartree contribution      =      12.11481326 Ry
     xc contribution           =     -13.99737843 Ry
     ewald contribution        =     -35.97182380 Ry
     smearing contrib. (-TS)   =       0.00041448 Ry

     convergence has been achieved in  14 iterations

     Forces acting on atoms (cartesian axes, Ry/au):

     atom    1 type  1   force =     0.00000000    0.00000000   -0.00000000
     atom    2 type  1   force =    -0.00000000   -0.00000000   -0.00000000
     atom    3 type  1   force =     0.00000000    0.00000000    0.00000000
     atom    4 type  1   force =     0.00000000    0.00000000   -0.00000000
     The non-local contrib.  to forces
     atom    1 type  1   force =     0.00000000    0.00000000    0.00000000
     atom    2 type  1   force =     0.00000000    0.00000000   -0.00000000
     atom    3 type  1   force =     0.00000000    0.00000000    0.00000000
     atom    4 type  1   force =     0.00000000    0.00000000    0.00000000
     The ionic contribution  to forces
     atom    1 type  1   force =     0.00000871   -0.00000503   -0.00000000
     atom    2 type  1   force =    -0.00000874    0.00000505   -0.00000000
     atom    3 type  1   force =    -0.00000871    0.00000503    0.00000000
     atom    4 type  1   force =     0.00000874   -0.00000505    0.00000000
     The local contribution  to forces
     atom    1 type  1   force =    -0.00000000    0.00000000   -0.00000000
     atom    2 type  1   force =    -0.00000666    0.00000384   -0.00000000
     atom    3 type  1   force =     0.00000000   -0.00000000   -0.00000000
     atom    4 type  1   force =     0.00000666   -0.00000384   -0.00000000
     The core correction contribution to forces
     atom    1 type  1   force =     0.00000000    0.00000000    0.00000000
     atom    2 type  1   force =     0.00000000    0.00000000    0.00000000
     atom    3 type  1   force =     0.00000000    0.00000000    0.00000000
     atom    4 type  1   force =     0.00000000    0.00000000    0.00000000
     The Hubbard contrib.    to forces
     atom    1 type  1   force =     0.00000000    0.00000000    0.00000000
     atom    2 type  1   force =     0.00000000    0.00000000    0.00000000
     atom    3 type  1   force =     0.00000000    0.00000000    0.00000000
     atom    4 type  1   force =     0.00000000    0.00000000    0.00000000
     The SCF correction term to forces
     atom    1 type  1   force =     0.00000000   -0.00000000   -0.00000000
     atom    2 type  1   force =    -0.00000000    0.00000000   -0.00000000
     atom    3 type  1   force =    -0.00000000    0.00000000   -0.00000000
     atom    4 type  1   force =     0.00000000   -0.00000000   -0.00000000

     Total force =     0.000000     Total SCF correction =     0.000000


     Computing stress (Cartesian axis) and pressure

          total   stress  (Ry/bohr**3)                   (kbar)     P=   -1.85
  -0.00001141   0.00000000  -0.00000000         -1.68      0.00     -0.00
   0.00000000  -0.00001141   0.00000000          0.00     -1.68      0.00
  -0.00000000   0.00000000  -0.00001490         -0.00      0.00     -2.19

     kinetic stress (kbar)  11847.12     -0.00      0.00
                               -0.00  11847.12     -0.00
                                0.00     -0.00  13581.42

     local   stress (kbar) -22762.50      0.01     -0.00
                                0.01 -22762.49      0.00
                               -0.00      0.00  20692.16

     nonloc. stress (kbar)   4144.29     -0.00      0.00
                               -0.00   4144.29     -0.00
                                0.00      0.00   3629.36

     hartree stress (kbar)   6969.93      0.00      0.00
                                0.00   6969.93      0.00
                                0.00      0.00  -5912.12

     exc-cor stress (kbar)  -2852.58      0.00      0.00
                                0.00  -2852.58      0.00
                                0.00      0.00  -2852.58

     corecor stress (kbar)      0.00      0.00      0.00
                                0.00      0.00      0.00
                                0.00      0.00      0.00

     ewald   stress (kbar)   2652.06     -0.03     -0.00
                               -0.03   2652.03      0.00
                               -0.00      0.00 -29140.43

     hubbard stress (kbar)      0.00      0.00      0.00
                                0.00      0.00      0.00
                                0.00      0.00      0.00

     london  stress (kbar)      0.00      0.00      0.00
                                0.00      0.00      0.00
                                0.00      0.00      0.00

     DFT-D3  stress (kbar)      0.00      0.00      0.00
                                0.00      0.00      0.00
                                0.00      0.00      0.00

     XDM     stress (kbar)      0.00      0.00      0.00
                                0.00      0.00      0.00
                                0.00      0.00      0.00

     dft-nl  stress (kbar)      0.00      0.00      0.00
                                0.00      0.00      0.00
                                0.00      0.00      0.00

     TS-vdW  stress (kbar)      0.00      0.00      0.00
                                0.00      0.00      0.00
                                0.00      0.00      0.00



     Writing output data file graphite.save/
 
     init_run     :      0.48s CPU      0.48s WALL (       2 calls)
     electrons    :      6.04s CPU      6.17s WALL (       9 calls)
     update_pot   :      1.40s CPU      1.40s WALL (       7 calls)
     forces       :      0.70s CPU      0.70s WALL (       9 calls)
     stress       :      1.07s CPU      1.07s WALL (       9 calls)

     Called by init_run:
     wfcinit      :      0.04s CPU      0.04s WALL (       2 calls)
     wfcinit:atom :      0.00s CPU      0.00s WALL (      12 calls)
     wfcinit:wfcr :      0.04s CPU      0.04s WALL (      12 calls)
     potinit      :      0.08s CPU      0.09s WALL (       2 calls)
     hinit0       :      0.30s CPU      0.29s WALL (       2 calls)

     Called by electrons:
     c_bands      :      4.34s CPU      4.44s WALL (      96 calls)
     sum_band     :      1.16s CPU      1.18s WALL (      96 calls)
     v_of_rho     :      0.12s CPU      0.12s WALL (     100 calls)
     v_h          :      0.04s CPU      0.04s WALL (     100 calls)
     v_xc         :      0.08s CPU      0.08s WALL (     100 calls)
     newd         :      0.30s CPU      0.31s WALL (     100 calls)
     mix_rho      :      0.08s CPU      0.08s WALL (      96 calls)

     Called by c_bands:
     init_us_2    :      0.10s CPU      0.09s WALL (    1272 calls)
     cegterg      :      4.06s CPU      4.19s WALL (     576 calls)

     Called by sum_band:
     sum_band:bec :      0.01s CPU      0.00s WALL (     576 calls)
     addusdens    :      0.37s CPU      0.35s WALL (      96 calls)

     Called by *egterg:
     h_psi        :      3.25s CPU      3.38s WALL (    2062 calls)
     s_psi        :      0.06s CPU      0.06s WALL (    2062 calls)
     g_psi        :      0.03s CPU      0.02s WALL (    1474 calls)
     cdiaghg      :      0.48s CPU      0.47s WALL (    1978 calls)
     cegterg:over :      0.07s CPU      0.10s WALL (    1474 calls)
     cegterg:upda :      0.07s CPU      0.06s WALL (    1474 calls)
     cegterg:last :      0.05s CPU      0.03s WALL (     603 calls)

     Called by h_psi:
     h_psi:pot    :      3.24s CPU      3.37s WALL (    2062 calls)
     h_psi:calbec :      0.07s CPU      0.08s WALL (    2062 calls)
     vloc_psi     :      3.10s CPU      3.22s WALL (    2062 calls)
     add_vuspsi   :      0.06s CPU      0.07s WALL (    2062 calls)

     General routines
     calbec       :      0.09s CPU      0.12s WALL (    2908 calls)
     fft          :      0.22s CPU      0.20s WALL (     639 calls)
     ffts         :      0.02s CPU      0.03s WALL (     196 calls)
     fftw         :      3.37s CPU      3.48s WALL (   43906 calls)
     interpolate  :      0.04s CPU      0.05s WALL (     100 calls)
 
     Parallel routines
     fft_scatt_xy :      0.60s CPU      0.52s WALL (   44741 calls)
     fft_scatt_yz :      0.55s CPU      0.50s WALL (   44741 calls)
 
     PWSCF        :      9.97s CPU     10.11s WALL

 
   This run was terminated on:  18:52:10   3Sep2019            

=------------------------------------------------------------------------------=
   JOB DONE.
=------------------------------------------------------------------------------=
