
     Program PWSCF v.6.4.1 starts on  3Sep2019 at 21:44:50 

     This program is part of the open-source Quantum ESPRESSO suite
     for quantum simulation of materials; please cite
         "P. Giannozzi et al., J. Phys.:Condens. Matter 21 395502 (2009);
         "P. Giannozzi et al., J. Phys.:Condens. Matter 29 465901 (2017);
          URL http://www.quantum-espresso.org", 
     in publications or presentations arising from this work. More details at
     http://www.quantum-espresso.org/quote

     Parallel version (MPI), running on     2 processors

     MPI processes distributed on     1 nodes
     R & G space division:  proc/nbgrp/npool/nimage =       2
     Waiting for input...
     Reading input from standard input

     Current dimensions of program PWSCF are:
     Max number of different atomic species (ntypx) = 10
     Max number of k-points (npk) =  40000
     Max angular momentum in pseudopotentials (lmaxx) =  3

     IMPORTANT: XC functional enforced from input :
     Exchange-correlation      = PBE0 ( 6  4  8  4 0 0)
     EXX-fraction              =        0.25
     Any further DFT definition will be discarded
     Please, verify this is what you really want


     Subspace diagonalization in iterative solution of the eigenvalue problem:
     a serial algorithm will be used

     EXX: setup a grid of 512 q-points centered on each k-point
     (k+q)-points:
  -0.0625000   0.0625000   0.0625000         1    1
  -0.3125000   0.3125000  -0.1875000         3    1
   0.4375000  -0.4375000   0.5625000         5    1
   0.1875000  -0.1875000   0.3125000         7    1
   0.1875000   0.3125000   0.3125000         3   -9
  -0.0625000   0.5625000   0.0625000        16    1
   0.6875000  -0.1875000   0.8125000        18    1
   0.4375000   0.0625000   0.5625000        20    1
  -0.5625000  -0.4375000  -0.4375000         5   -9
  -0.8125000  -0.1875000  -0.6875000        18   -9
  -0.0625000  -0.9375000   0.0625000        27    1
  -0.3125000  -0.6875000  -0.1875000        29    1
  -0.3125000  -0.1875000  -0.1875000         7   -9
  -0.5625000   0.0625000  -0.4375000        20   -9
   0.1875000  -0.6875000   0.3125000        29   -9
  -0.0625000  -0.4375000   0.0625000        32    1
  -0.3125000  -0.1875000   0.3125000         3  -14
  -0.5625000   0.0625000   0.0625000        16   -5
   0.1875000  -0.6875000   0.8125000        18   -5
  -0.0625000  -0.4375000   0.5625000        20   -5
  -0.0625000   0.0625000   0.5625000        16  -14
  -0.3125000   0.3125000   0.3125000        51    1
   0.4375000  -0.4375000   1.0625000        53    1
   0.1875000  -0.1875000   0.8125000        50   14
  -0.8125000  -0.6875000  -0.1875000        18   18
  -1.0625000  -0.4375000  -0.4375000        53   -9
  -0.3125000  -1.1875000   0.3125000        58    1
  -0.5625000  -0.9375000   0.0625000        46   14
  -0.5625000  -0.4375000   0.0625000        20   18
  -0.8125000  -0.1875000  -0.1875000        50    5
  -0.0625000  -0.9375000   0.5625000        46  -23
  -0.3125000  -0.6875000   0.3125000        37   14
   0.4375000   0.5625000  -0.4375000         5  -14
   0.1875000   0.8125000  -0.6875000        18   23
   0.9375000   0.0625000   0.0625000        27   -5
   0.6875000   0.3125000  -0.1875000        29   -5
   0.6875000   0.8125000  -0.1875000        18  -14
   0.4375000   1.0625000  -0.4375000        53  -14
   1.1875000   0.3125000   0.3125000        58   -5
   0.9375000   0.5625000   0.0625000        46  -18
  -0.0625000   0.0625000  -0.9375000        27  -14
  -0.3125000   0.3125000  -1.1875000        58  -14
   0.4375000  -0.4375000  -0.4375000        59   -1
   0.1875000  -0.1875000  -0.6875000        44   14
   0.1875000   0.3125000  -0.6875000        29   18
  -0.0625000   0.5625000  -0.9375000        46    5
   0.6875000  -0.1875000  -0.1875000        44    5
   0.4375000   0.0625000  -0.4375000        35   14
   0.1875000   0.3125000  -0.1875000         7  -14
  -0.0625000   0.5625000  -0.4375000        20   23
   0.6875000  -0.1875000   0.3125000        29   23
   0.4375000   0.0625000   0.0625000        32   -5
   0.4375000   0.5625000   0.0625000        20  -14
   0.1875000   0.8125000  -0.1875000        50   -1
   0.9375000   0.0625000   0.5625000        46    9
   0.6875000   0.3125000   0.3125000        37    9
  -0.3125000  -0.1875000  -0.6875000        29  -14
  -0.5625000   0.0625000  -0.9375000        46   -1
   0.1875000  -0.6875000  -0.1875000        44   -1
  -0.0625000  -0.4375000  -0.4375000        35    9
  -0.0625000   0.0625000  -0.4375000        32  -14
  -0.3125000   0.3125000  -0.6875000        37   -1
   0.4375000  -0.4375000   0.0625000        35   -1
   0.1875000  -0.1875000  -0.1875000        33   -1
  -0.1875000   0.1875000  -0.0625000         2    1
  -0.4375000   0.4375000  -0.3125000         4    1
   0.3125000  -0.3125000   0.4375000         6    1
   0.0625000  -0.0625000   0.1875000         8    1
   0.0625000   0.4375000   0.1875000        10   -9
  -0.1875000   0.6875000  -0.0625000        17    1
   0.5625000  -0.0625000   0.6875000        19    1
   0.3125000   0.1875000   0.4375000        21    1
  -0.6875000  -0.3125000  -0.5625000        12   -9
  -0.9375000  -0.0625000  -0.8125000        23   -9
  -0.1875000  -0.8125000  -0.0625000        28    1
  -0.4375000  -0.5625000  -0.3125000        26   14
  -0.4375000  -0.0625000  -0.3125000        14   -9
  -0.6875000   0.1875000  -0.5625000        25   -9
   0.0625000  -0.5625000   0.1875000        31   -9
  -0.1875000  -0.3125000  -0.0625000        15   14
  -0.4375000  -0.0625000   0.1875000        10   23
  -0.6875000   0.1875000  -0.0625000        17   -5
   0.0625000  -0.5625000   0.6875000        19   -5
  -0.1875000  -0.3125000   0.4375000        21   -5
  -0.1875000   0.1875000   0.4375000        39  -14
  -0.4375000   0.4375000   0.1875000        52    1
   0.3125000  -0.3125000   0.9375000        54    1
   0.0625000  -0.0625000   0.6875000        30   14
  -0.9375000  -0.5625000  -0.3125000        41   18
  -1.1875000  -0.3125000  -0.5625000        56   -9
  -0.4375000  -1.0625000   0.1875000        57   14
  -0.6875000  -0.8125000  -0.0625000        24   14
  -0.6875000  -0.3125000  -0.0625000        43   18
  -0.9375000  -0.0625000  -0.3125000        49  -23
  -0.1875000  -0.8125000   0.4375000        42  -23
  -0.4375000  -0.5625000   0.1875000        13   14
   0.3125000   0.6875000  -0.5625000        12   23
   0.0625000   0.9375000  -0.8125000        23   23
   0.8125000   0.1875000  -0.0625000        28   -5
   0.5625000   0.4375000  -0.3125000        26  -18
   0.5625000   0.9375000  -0.3125000        41  -14
   0.3125000   1.1875000  -0.5625000        56   23
   1.0625000   0.4375000   0.1875000        57  -18
   0.8125000   0.6875000  -0.0625000        24  -18
  -0.1875000   0.1875000  -1.0625000        48  -14
  -0.4375000   0.4375000  -1.3125000        60   -1
   0.3125000  -0.3125000  -0.5625000        55   14
   0.0625000  -0.0625000  -0.8125000        22   14
   0.0625000   0.4375000  -0.8125000        47    5
  -0.1875000   0.6875000  -1.0625000        45    5
   0.5625000  -0.0625000  -0.3125000        40  -23
   0.3125000   0.1875000  -0.5625000        11   14
   0.0625000   0.4375000  -0.3125000        14   23
  -0.1875000   0.6875000  -0.5625000        25   23
   0.5625000  -0.0625000   0.1875000        31   23
   0.3125000   0.1875000  -0.0625000        15  -18
   0.3125000   0.6875000  -0.0625000        43  -14
   0.0625000   0.9375000  -0.3125000        49    9
   0.8125000   0.1875000   0.4375000        42    9
   0.5625000   0.4375000   0.1875000        13  -18
  -0.4375000  -0.0625000  -0.8125000        47   -1
  -0.6875000   0.1875000  -1.0625000        45   -1
   0.0625000  -0.5625000  -0.3125000        40    9
  -0.1875000  -0.3125000  -0.5625000        11  -18
  -0.1875000   0.1875000  -0.5625000        38   -1
  -0.4375000   0.4375000  -0.8125000        36   -1
   0.3125000  -0.3125000  -0.0625000        34   -1
   0.0625000  -0.0625000  -0.3125000         9   14
  -0.0625000   0.3125000   0.0625000         9    1
  -0.3125000   0.5625000  -0.1875000        11    1
   0.4375000  -0.1875000   0.5625000        13    1
   0.1875000   0.0625000   0.3125000        15    1
   0.1875000   0.5625000   0.3125000        11   -9
  -0.0625000   0.8125000   0.0625000        22    1
   0.6875000   0.0625000   0.8125000        24    1
   0.4375000   0.3125000   0.5625000        26    1
  -0.5625000  -0.1875000  -0.4375000        13   -9
  -0.8125000   0.0625000  -0.6875000        24   -9
  -0.0625000  -0.6875000   0.0625000        30    1
  -0.3125000  -0.4375000  -0.1875000        21   14
  -0.3125000   0.0625000  -0.1875000        15   -9
  -0.5625000   0.3125000  -0.4375000        26   -9
   0.1875000  -0.4375000   0.3125000        21  -23
  -0.0625000  -0.1875000   0.0625000         8   14
  -0.3125000   0.0625000   0.3125000        34  -14
  -0.5625000   0.3125000   0.0625000        40   -5
   0.1875000  -0.4375000   0.8125000        42   -5
  -0.0625000  -0.1875000   0.5625000        31  -18
  -0.0625000   0.3125000   0.5625000        40   18
  -0.3125000   0.5625000   0.3125000        55    1
   0.4375000  -0.1875000   1.0625000        57    1
   0.1875000   0.0625000   0.8125000        28   14
  -0.8125000  -0.4375000  -0.1875000        42   18
  -1.0625000  -0.1875000  -0.4375000        57   -9
  -0.3125000  -0.9375000   0.3125000        54   14
  -0.5625000  -0.6875000   0.0625000        19   14
  -0.5625000  -0.1875000   0.0625000        31    5
  -0.8125000   0.0625000  -0.1875000        28  -23
  -0.0625000  -0.6875000   0.5625000        19  -23
  -0.3125000  -0.4375000   0.3125000         6   14
   0.4375000   0.8125000  -0.4375000        36  -14
   0.1875000   1.0625000  -0.6875000        45   23
   0.9375000   0.3125000   0.0625000        49   -5
   0.6875000   0.5625000  -0.1875000        25  -18
   0.6875000   1.0625000  -0.1875000        45  -14
   0.4375000   1.3125000  -0.4375000        60  -14
   1.1875000   0.5625000   0.3125000        56  -18
   0.9375000   0.8125000   0.0625000        23  -18
  -0.0625000   0.3125000  -0.9375000        49   18
  -0.3125000   0.5625000  -1.1875000        56    5
   0.4375000  -0.1875000  -0.4375000        52   14
   0.1875000   0.0625000  -0.6875000        17   14
   0.1875000   0.5625000  -0.6875000        25    5
  -0.0625000   0.8125000  -0.9375000        23    5
   0.6875000   0.0625000  -0.1875000        17  -23
   0.4375000   0.3125000  -0.4375000         4   14
   0.1875000   0.5625000  -0.1875000        38  -14
  -0.0625000   0.8125000  -0.4375000        47   23
   0.6875000   0.0625000   0.3125000        43    9
   0.4375000   0.3125000   0.0625000        14  -18
   0.4375000   0.8125000   0.0625000        47  -14
   0.1875000   1.0625000  -0.1875000        48   -1
   0.9375000   0.3125000   0.5625000        41    9
   0.6875000   0.5625000   0.3125000        12  -18
  -0.3125000   0.0625000  -0.6875000        43   -1
  -0.5625000   0.3125000  -0.9375000        41   -1
   0.1875000  -0.4375000  -0.1875000        39   -1
  -0.0625000  -0.1875000  -0.4375000        10  -18
  -0.0625000   0.3125000  -0.4375000        14    5
  -0.3125000   0.5625000  -0.6875000        12    5
   0.4375000  -0.1875000   0.0625000        10    5
   0.1875000   0.0625000  -0.1875000         2   14
  -0.1875000   0.4375000  -0.0625000        10    1
   0.5625000  -0.3125000   0.6875000        12    1
   0.3125000  -0.0625000   0.4375000        14    1
   0.0625000   0.1875000   0.1875000         2   -9
   0.0625000   0.6875000   0.1875000        17   -9
   0.8125000  -0.0625000   0.9375000        23    1
   0.5625000   0.1875000   0.6875000        25    1
   0.3125000   0.4375000   0.4375000         4   -9
  -0.6875000  -0.0625000  -0.5625000        19   -9
   0.0625000  -0.8125000   0.1875000        28   -9
  -0.1875000  -0.5625000  -0.0625000        31    1
  -0.4375000  -0.3125000  -0.3125000         6   -9
  -0.4375000   0.1875000  -0.3125000        21   -9
   0.3125000  -0.5625000   0.4375000        26  -23
   0.0625000  -0.3125000   0.1875000        15  -23
  -0.1875000  -0.0625000  -0.0625000         8   -9
  -0.4375000   0.1875000   0.1875000        39   -5
   0.3125000  -0.5625000   0.9375000        41   -5
   0.0625000  -0.3125000   0.6875000        43   -5
  -0.1875000  -0.0625000   0.4375000        10  -14
  -0.1875000   0.4375000   0.4375000        52   -9
   0.5625000  -0.3125000   1.1875000        56    1
   0.3125000  -0.0625000   0.9375000        49   14
   0.0625000   0.1875000   0.6875000        17   18
  -0.9375000  -0.3125000  -0.3125000        54   -9
  -0.1875000  -1.0625000   0.4375000        57  -23
  -0.4375000  -0.8125000   0.1875000        42   14
  -0.6875000  -0.5625000  -0.0625000        19   18
  -0.6875000  -0.0625000  -0.0625000        30    5
   0.0625000  -0.8125000   0.6875000        24  -23
  -0.1875000  -0.5625000   0.4375000        13  -23
  -0.4375000  -0.3125000   0.1875000        21   18
   0.3125000   0.9375000  -0.5625000        41   23
   1.0625000   0.1875000   0.1875000        48   -5
   0.8125000   0.4375000  -0.0625000        47  -18
   0.5625000   0.6875000  -0.3125000        12  -14
   0.5625000   1.1875000  -0.3125000        56  -14
   1.3125000   0.4375000   0.4375000        60    9
   1.0625000   0.6875000   0.1875000        45  -18
   0.8125000   0.9375000  -0.0625000        23  -14
  -0.1875000   0.4375000  -1.0625000        57    5
   0.5625000  -0.3125000  -0.3125000        55    5
   0.3125000  -0.0625000  -0.5625000        40   14
   0.0625000   0.1875000  -0.8125000        28   18
   0.0625000   0.6875000  -0.8125000        24    5
   0.8125000  -0.0625000  -0.0625000        22    5
   0.5625000   0.1875000  -0.3125000        11  -23
   0.3125000   0.4375000  -0.5625000        26    5
   0.0625000   0.6875000  -0.3125000        43   23
   0.8125000  -0.0625000   0.4375000        47    9
   0.5625000   0.1875000   0.1875000        38    9
   0.3125000   0.4375000  -0.0625000        14  -14
   0.3125000   0.9375000  -0.0625000        49   -1
   1.0625000   0.1875000   0.6875000        45    9
   0.8125000   0.4375000   0.4375000        36    9
   0.5625000   0.6875000   0.1875000        25  -14
  -0.4375000   0.1875000  -0.8125000        42   -1
   0.3125000  -0.5625000  -0.0625000        40   -1
   0.0625000  -0.3125000  -0.3125000        34    9
  -0.1875000  -0.0625000  -0.5625000        31  -14
  -0.1875000   0.4375000  -0.5625000        13    5
   0.5625000  -0.3125000   0.1875000        11    5
   0.3125000  -0.0625000  -0.0625000         9    5
   0.0625000   0.1875000  -0.3125000        15    5
  -0.1875000   0.1875000   0.1875000        33    1
  -0.4375000   0.4375000  -0.0625000        35    1
   0.3125000  -0.3125000   0.6875000        37    1
   0.0625000  -0.0625000   0.4375000        32   14
   0.0625000   0.4375000   0.4375000        35   -9
  -0.1875000   0.6875000   0.1875000        44    1
   0.5625000  -0.0625000   0.9375000        46    1
   0.3125000   0.1875000   0.6875000        29   14
  -0.6875000  -0.3125000  -0.3125000        37   -9
  -0.9375000  -0.0625000  -0.5625000        46   -9
  -0.1875000  -0.8125000   0.1875000        50    1
  -0.4375000  -0.5625000  -0.0625000        20   14
  -0.4375000  -0.0625000  -0.0625000        32    5
  -0.6875000   0.1875000  -0.3125000        29  -23
   0.0625000  -0.5625000   0.4375000        20  -23
  -0.1875000  -0.3125000   0.1875000         7   14
  -0.4375000  -0.0625000   0.4375000        35  -14
  -0.6875000   0.1875000   0.1875000        44   -5
   0.0625000  -0.5625000   0.9375000        46   -5
  -0.1875000  -0.3125000   0.6875000        29  -18
  -0.1875000   0.1875000   0.6875000        44  -14
  -0.4375000   0.4375000   0.4375000        59    1
   0.3125000  -0.3125000   1.1875000        58   14
   0.0625000  -0.0625000   0.9375000        27   14
  -0.9375000  -0.5625000  -0.0625000        46   18
  -1.1875000  -0.3125000  -0.3125000        58    5
  -0.4375000  -1.0625000   0.4375000        53   14
  -0.6875000  -0.8125000   0.1875000        18   14
  -0.6875000  -0.3125000   0.1875000        29    5
  -0.9375000  -0.0625000  -0.0625000        27    5
  -0.1875000  -0.8125000   0.6875000        18  -23
  -0.4375000  -0.5625000   0.4375000         5   14
   0.3125000   0.6875000  -0.3125000        37  -14
   0.0625000   0.9375000  -0.5625000        46   23
   0.8125000   0.1875000   0.1875000        50   -5
   0.5625000   0.4375000  -0.0625000        20  -18
   0.5625000   0.9375000  -0.0625000        46  -14
   0.3125000   1.1875000  -0.3125000        58   -1
   1.0625000   0.4375000   0.4375000        53    9
   0.8125000   0.6875000   0.1875000        18  -18
  -0.1875000   0.1875000  -0.8125000        50  -14
  -0.4375000   0.4375000  -1.0625000        53   -1
   0.3125000  -0.3125000  -0.3125000        51   -1
   0.0625000  -0.0625000  -0.5625000        16   14
   0.0625000   0.4375000  -0.5625000        20    5
  -0.1875000   0.6875000  -0.8125000        18    5
   0.5625000  -0.0625000  -0.0625000        16    5
   0.3125000   0.1875000  -0.3125000         3   14
   0.0625000   0.4375000  -0.0625000        32   -1
  -0.1875000   0.6875000  -0.3125000        29    9
   0.5625000  -0.0625000   0.4375000        20    9
   0.3125000   0.1875000   0.1875000         7    9
   0.3125000   0.6875000   0.1875000        29   -1
   0.0625000   0.9375000  -0.0625000        27   -1
   0.8125000   0.1875000   0.6875000        18    9
   0.5625000   0.4375000   0.4375000         5    9
  -0.4375000  -0.0625000  -0.5625000        20   -1
  -0.6875000   0.1875000  -0.8125000        18   -1
   0.0625000  -0.5625000  -0.0625000        16   -1
  -0.1875000  -0.3125000  -0.3125000         3    9
  -0.1875000   0.1875000  -0.3125000         7   -1
  -0.4375000   0.4375000  -0.5625000         5   -1
   0.3125000  -0.3125000   0.1875000         3   -1
   0.0625000  -0.0625000  -0.0625000         1   -1
  -0.3125000   0.3125000   0.0625000        34    1
   0.4375000  -0.4375000   0.8125000        36    1
   0.1875000  -0.1875000   0.5625000        38    1
  -0.0625000   0.0625000   0.3125000         9  -14
  -0.0625000   0.5625000   0.3125000        40   -9
   0.6875000  -0.1875000   1.0625000        45    1
   0.4375000   0.0625000   0.8125000        47    1
   0.1875000   0.3125000   0.5625000        11   18
  -0.8125000  -0.1875000  -0.4375000        42   -9
  -0.0625000  -0.9375000   0.3125000        49   -9
  -0.3125000  -0.6875000   0.0625000        43   14
  -0.5625000  -0.4375000  -0.1875000        13   18
  -0.5625000   0.0625000  -0.1875000        31  -23
   0.1875000  -0.6875000   0.5625000        25  -23
  -0.0625000  -0.4375000   0.3125000        14  -23
  -0.3125000  -0.1875000   0.0625000        15   18
  -0.5625000   0.0625000   0.3125000        40   23
   0.1875000  -0.6875000   1.0625000        45   -5
  -0.0625000  -0.4375000   0.8125000        47   -5
  -0.3125000  -0.1875000   0.5625000        11  -14
  -0.3125000   0.3125000   0.5625000        55  -14
   0.4375000  -0.4375000   1.3125000        60    1
   0.1875000  -0.1875000   1.0625000        48   14
  -0.0625000   0.0625000   0.8125000        22  -14
  -1.0625000  -0.4375000  -0.1875000        57   18
  -0.3125000  -1.1875000   0.5625000        56  -23
  -0.5625000  -0.9375000   0.3125000        41   14
  -0.8125000  -0.6875000   0.0625000        24   18
  -0.8125000  -0.1875000   0.0625000        28    5
  -0.0625000  -0.9375000   0.8125000        23  -23
  -0.3125000  -0.6875000   0.5625000        12  -23
  -0.5625000  -0.4375000   0.3125000        26   18
   0.1875000   0.8125000  -0.4375000        42   23
   0.9375000   0.0625000   0.3125000        49   23
   0.6875000   0.3125000   0.0625000        43  -18
   0.4375000   0.5625000  -0.1875000        13  -14
   0.4375000   1.0625000  -0.1875000        57  -14
   1.1875000   0.3125000   0.5625000        56    9
   0.9375000   0.5625000   0.3125000        41  -18
   0.6875000   0.8125000   0.0625000        24  -14
  -0.3125000   0.3125000  -0.9375000        54   -1
   0.4375000  -0.4375000  -0.1875000        52   -1
   0.1875000  -0.1875000  -0.4375000        39   14
  -0.0625000   0.0625000  -0.6875000        30  -14
  -0.0625000   0.5625000  -0.6875000        19    5
   0.6875000  -0.1875000   0.0625000        17    5
   0.4375000   0.0625000  -0.1875000        10  -23
   0.1875000   0.3125000  -0.4375000        21    5
  -0.0625000   0.5625000  -0.1875000        31    9
   0.6875000  -0.1875000   0.5625000        25    9
   0.4375000   0.0625000   0.3125000        14    9
   0.1875000   0.3125000   0.0625000        15  -14
   0.1875000   0.8125000   0.0625000        28   -1
   0.9375000   0.0625000   0.8125000        23    9
   0.6875000   0.3125000   0.5625000        12    9
   0.4375000   0.5625000   0.3125000        26  -14
  -0.5625000   0.0625000  -0.6875000        19   -1
   0.1875000  -0.6875000   0.0625000        17   -1
  -0.0625000  -0.4375000  -0.1875000        10    9
  -0.3125000  -0.1875000  -0.4375000        21   -1
  -0.3125000   0.3125000  -0.4375000         6   -1
   0.4375000  -0.4375000   0.3125000         4   -1
   0.1875000  -0.1875000   0.0625000         2   -1
  -0.0625000   0.0625000  -0.1875000         8   -1
  -0.1875000   0.4375000   0.1875000        39    1
   0.5625000  -0.3125000   0.9375000        41    1
   0.3125000  -0.0625000   0.6875000        43    1
   0.0625000   0.1875000   0.4375000        10   18
  -0.9375000  -0.3125000  -0.5625000        41   -9
  -0.1875000  -1.0625000   0.1875000        48    1
  -0.4375000  -0.8125000  -0.0625000        47   14
  -0.6875000  -0.5625000  -0.3125000        12   18
  -0.6875000  -0.0625000  -0.3125000        43   -9
   0.0625000  -0.8125000   0.4375000        47  -23
  -0.1875000  -0.5625000   0.1875000        38   14
  -0.4375000  -0.3125000  -0.0625000        14   18
  -0.4375000   0.1875000  -0.0625000        10   -5
   0.3125000  -0.5625000   0.6875000        12   -5
   0.0625000  -0.3125000   0.4375000        14   -5
  -0.1875000  -0.0625000   0.1875000         2  -14
  -0.4375000   0.1875000   0.4375000        52  -14
   0.3125000  -0.5625000   1.1875000        56   -5
   0.0625000  -0.3125000   0.9375000        49  -18
  -0.1875000  -0.0625000   0.6875000        17  -14
  -1.1875000  -0.5625000  -0.3125000        56   18
  -0.4375000  -1.3125000   0.4375000        60   14
  -0.6875000  -1.0625000   0.1875000        45   14
  -0.9375000  -0.8125000  -0.0625000        23   18
  -0.9375000  -0.3125000  -0.0625000        49    5
  -0.1875000  -1.0625000   0.6875000        45  -23
  -0.4375000  -0.8125000   0.4375000        36   14
  -0.6875000  -0.5625000   0.1875000        25   18
  -0.6875000  -0.0625000   0.1875000        17   23
   0.0625000  -0.8125000   0.9375000        23   -5
  -0.1875000  -0.5625000   0.6875000        25   -5
  -0.4375000  -0.3125000   0.4375000         4  -14
   0.3125000   0.9375000  -0.3125000        54  -14
   1.0625000   0.1875000   0.4375000        57    9
   0.8125000   0.4375000   0.1875000        42  -18
   0.5625000   0.6875000  -0.0625000        19  -14
  -0.4375000   0.1875000  -1.0625000        57   -1
   0.3125000  -0.5625000  -0.3125000        55   -1
   0.0625000  -0.3125000  -0.5625000        40  -18
  -0.1875000  -0.0625000  -0.8125000        28  -14
  -0.1875000   0.4375000  -0.8125000        42    5
   0.5625000  -0.3125000  -0.0625000        40    5
   0.3125000  -0.0625000  -0.3125000        34   14
   0.0625000   0.1875000  -0.5625000        31   18
   0.0625000   0.6875000  -0.5625000        19   23
   0.8125000  -0.0625000   0.1875000        28   23
   0.5625000   0.1875000  -0.0625000        31   -5
   0.3125000   0.4375000  -0.3125000         6  -14
   0.0625000   0.6875000  -0.0625000        30   -1
   0.8125000  -0.0625000   0.6875000        24    9
   0.5625000   0.1875000   0.4375000        13    9
   0.3125000   0.4375000   0.1875000        21  -14
  -0.6875000  -0.0625000  -0.8125000        24   -1
   0.0625000  -0.8125000  -0.0625000        22   -1
  -0.1875000  -0.5625000  -0.3125000        11    9
  -0.4375000  -0.3125000  -0.5625000        26   -1
  -0.4375000   0.1875000  -0.5625000        13   -1
   0.3125000  -0.5625000   0.1875000        11   -1
   0.0625000  -0.3125000  -0.0625000         9   -1
  -0.1875000  -0.0625000  -0.3125000        15   -1
  -0.1875000   0.4375000  -0.3125000        21   23
   0.5625000  -0.3125000   0.4375000        26    9
   0.3125000  -0.0625000   0.1875000        15    9
   0.0625000   0.1875000  -0.0625000         8  -14
  -0.3125000   0.5625000   0.0625000        40    1
   0.4375000  -0.1875000   0.8125000        42    1
   0.1875000   0.0625000   0.5625000        31   14
  -0.0625000   0.3125000   0.3125000        34   -9
  -1.0625000  -0.1875000  -0.6875000        45   -9
  -0.3125000  -0.9375000   0.0625000        49    1
  -0.5625000  -0.6875000  -0.1875000        25   14
  -0.8125000  -0.4375000  -0.4375000        36   -9
  -0.8125000   0.0625000  -0.4375000        47   -9
  -0.0625000  -0.6875000   0.3125000        43  -23
  -0.3125000  -0.4375000   0.0625000        14   14
  -0.5625000  -0.1875000  -0.1875000        38   -9
  -0.5625000   0.3125000  -0.1875000        11   -5
   0.1875000  -0.4375000   0.5625000        13   -5
  -0.0625000  -0.1875000   0.3125000        15   -5
  -0.3125000   0.0625000   0.0625000         9   -5
  -0.5625000   0.3125000   0.3125000        55   -5
   0.1875000  -0.4375000   1.0625000        57   -5
  -0.0625000  -0.1875000   0.8125000        28  -18
  -0.3125000   0.0625000   0.5625000        40  -14
  -1.3125000  -0.4375000  -0.4375000        60   -9
  -0.5625000  -1.1875000   0.3125000        56   14
  -0.8125000  -0.9375000   0.0625000        23   14
  -1.0625000  -0.6875000  -0.1875000        45   18
  -1.0625000  -0.1875000  -0.1875000        48    5
  -0.3125000  -0.9375000   0.5625000        41  -23
  -0.5625000  -0.6875000   0.3125000        12   14
  -0.8125000  -0.4375000   0.0625000        47   18
  -0.8125000   0.0625000   0.0625000        22   -5
  -0.0625000  -0.6875000   0.8125000        24   -5
  -0.3125000  -0.4375000   0.5625000        26   -5
  -0.5625000  -0.1875000   0.3125000        11   23
   0.1875000   1.0625000  -0.4375000        57   23
   0.9375000   0.3125000   0.3125000        54    9
   0.6875000   0.5625000   0.0625000        19  -18
   0.4375000   0.8125000  -0.1875000        42  -14
  -0.5625000   0.3125000  -1.1875000        56   -1
   0.1875000  -0.4375000  -0.4375000        52    9
  -0.0625000  -0.1875000  -0.6875000        17  -18
  -0.3125000   0.0625000  -0.9375000        49  -14
  -0.3125000   0.5625000  -0.9375000        41    5
   0.4375000  -0.1875000  -0.1875000        39    5
   0.1875000   0.0625000  -0.4375000        10   14
  -0.0625000   0.3125000  -0.6875000        43    5
  -0.0625000   0.8125000  -0.6875000        24   23
   0.6875000   0.0625000   0.0625000        30   -5
   0.4375000   0.3125000  -0.1875000        21  -18
   0.1875000   0.5625000  -0.4375000        13   23
  -0.0625000   0.8125000  -0.1875000        28    9
   0.6875000   0.0625000   0.5625000        19    9
   0.4375000   0.3125000   0.3125000         6    9
   0.1875000   0.5625000   0.0625000        31   -1
  -0.8125000   0.0625000  -0.9375000        23   -1
  -0.0625000  -0.6875000  -0.1875000        17    9
  -0.3125000  -0.4375000  -0.4375000         4    9
  -0.5625000  -0.1875000  -0.6875000        25   -1
  -0.5625000   0.3125000  -0.6875000        12   -1
   0.1875000  -0.4375000   0.0625000        10   -1
  -0.0625000  -0.1875000  -0.1875000         2    9
  -0.3125000   0.0625000  -0.4375000        14   -1
  -0.3125000   0.5625000  -0.4375000        26   23
   0.4375000  -0.1875000   0.3125000        21    9
   0.1875000   0.0625000   0.0625000         8    9
  -0.0625000   0.3125000  -0.1875000        15   23
 
     Parallelization info
     --------------------
     sticks:   dense  smooth     PW     G-vecs:    dense   smooth      PW
     Min         141     141     54                 1570     1570     350
     Max         142     142     55                 1573     1573     351
     Sum         283     283    109                 3143     3143     701
 


     bravais-lattice index     =            2
     lattice parameter (alat)  =      10.2000  a.u.
     unit-cell volume          =     265.3020 (a.u.)^3
     number of atoms/cell      =            2
     number of atomic types    =            1
     number of electrons       =         8.00
     number of Kohn-Sham states=            4
     kinetic-energy cutoff     =      20.0000  Ry
     charge density cutoff     =      80.0000  Ry
     cutoff for Fock operator  =      80.0000  Ry
     convergence threshold     =      1.0E-09
     mixing beta               =       0.3000
     number of iterations used =            8  plain     mixing
     Exchange-correlation      = PBE0 ( 6  4  8  4 0 0)
     EXX-fraction              =        0.25

     celldm(1)=  10.200000  celldm(2)=   0.000000  celldm(3)=   0.000000
     celldm(4)=   0.000000  celldm(5)=   0.000000  celldm(6)=   0.000000

     crystal axes: (cart. coord. in units of alat)
               a(1) = (  -0.500000   0.000000   0.500000 )  
               a(2) = (   0.000000   0.500000   0.500000 )  
               a(3) = (  -0.500000   0.500000   0.000000 )  

     reciprocal axes: (cart. coord. in units 2 pi/alat)
               b(1) = ( -1.000000 -1.000000  1.000000 )  
               b(2) = (  1.000000  1.000000  1.000000 )  
               b(3) = ( -1.000000  1.000000 -1.000000 )  


     PseudoPot. # 1 for Si read from file:
     ../../../pseudo/Si.pbe-rrkj.UPF
     MD5 check sum: d313e23c370db8ef523384de16bc752c
     Pseudo is Norm-conserving, Zval =  4.0
     Generated by new atomic code, or converted to UPF format
     Using radial grid of  883 points,  3 beta functions with: 
                l(1) =   0
                l(2) =   0
                l(3) =   1

     atomic species   valence    mass     pseudopotential
        Si             4.00    28.08600     Si( 1.00)

     48 Sym. Ops., with inversion, found (24 have fractional translation)


                                    s                        frac. trans.

      isym =  1     identity                                     

 cryst.   s( 1) = (     1          0          0      )
                  (     0          1          0      )
                  (     0          0          1      )

 cart.    s( 1) = (  1.0000000  0.0000000  0.0000000 )
                  (  0.0000000  1.0000000  0.0000000 )
                  (  0.0000000  0.0000000  1.0000000 )


      isym =  2     180 deg rotation - cart. axis [0,0,1]        

 cryst.   s( 2) = (     0          1         -1      )
                  (     1          0         -1      )
                  (     0          0         -1      )

 cart.    s( 2) = ( -1.0000000  0.0000000  0.0000000 )
                  (  0.0000000 -1.0000000  0.0000000 )
                  (  0.0000000  0.0000000  1.0000000 )


      isym =  3     180 deg rotation - cart. axis [0,1,0]        

 cryst.   s( 3) = (    -1          0          0      )
                  (    -1          0          1      )
                  (    -1          1          0      )

 cart.    s( 3) = ( -1.0000000  0.0000000  0.0000000 )
                  (  0.0000000  1.0000000  0.0000000 )
                  (  0.0000000  0.0000000 -1.0000000 )


      isym =  4     180 deg rotation - cart. axis [1,0,0]        

 cryst.   s( 4) = (     0         -1          1      )
                  (     0         -1          0      )
                  (     1         -1          0      )

 cart.    s( 4) = (  1.0000000  0.0000000  0.0000000 )
                  (  0.0000000 -1.0000000  0.0000000 )
                  (  0.0000000  0.0000000 -1.0000000 )


      isym =  5     180 deg rotation - cart. axis [1,1,0]        

 cryst.   s( 5) = (     0         -1          0      )    f =(  0.2500000 )
                  (    -1          0          0      )       (  0.2500000 )
                  (     0          0         -1      )       (  0.2500000 )

 cart.    s( 5) = (  0.0000000  1.0000000  0.0000000 )    f =( -0.2500000 )
                  (  1.0000000  0.0000000  0.0000000 )       (  0.2500000 )
                  (  0.0000000  0.0000000 -1.0000000 )       (  0.2500000 )


      isym =  6     180 deg rotation - cart. axis [1,-1,0]       

 cryst.   s( 6) = (    -1          0          1      )    f =(  0.2500000 )
                  (     0         -1          1      )       (  0.2500000 )
                  (     0          0          1      )       (  0.2500000 )

 cart.    s( 6) = (  0.0000000 -1.0000000  0.0000000 )    f =( -0.2500000 )
                  ( -1.0000000  0.0000000  0.0000000 )       (  0.2500000 )
                  (  0.0000000  0.0000000 -1.0000000 )       (  0.2500000 )


      isym =  7      90 deg rotation - cart. axis [0,0,-1]       

 cryst.   s( 7) = (     0          1          0      )    f =(  0.2500000 )
                  (     0          1         -1      )       (  0.2500000 )
                  (    -1          1          0      )       (  0.2500000 )

 cart.    s( 7) = (  0.0000000  1.0000000  0.0000000 )    f =( -0.2500000 )
                  ( -1.0000000  0.0000000  0.0000000 )       (  0.2500000 )
                  (  0.0000000  0.0000000  1.0000000 )       (  0.2500000 )


      isym =  8      90 deg rotation - cart. axis [0,0,1]        

 cryst.   s( 8) = (     1          0         -1      )    f =(  0.2500000 )
                  (     1          0          0      )       (  0.2500000 )
                  (     1         -1          0      )       (  0.2500000 )

 cart.    s( 8) = (  0.0000000 -1.0000000  0.0000000 )    f =( -0.2500000 )
                  (  1.0000000  0.0000000  0.0000000 )       (  0.2500000 )
                  (  0.0000000  0.0000000  1.0000000 )       (  0.2500000 )


      isym =  9     180 deg rotation - cart. axis [1,0,1]        

 cryst.   s( 9) = (    -1          0          0      )    f =(  0.2500000 )
                  (     0          0         -1      )       (  0.2500000 )
                  (     0         -1          0      )       (  0.2500000 )

 cart.    s( 9) = (  0.0000000  0.0000000  1.0000000 )    f =( -0.2500000 )
                  (  0.0000000 -1.0000000  0.0000000 )       (  0.2500000 )
                  (  1.0000000  0.0000000  0.0000000 )       (  0.2500000 )


      isym = 10     180 deg rotation - cart. axis [-1,0,1]       

 cryst.   s(10) = (     1          0          0      )    f =(  0.2500000 )
                  (     1         -1          0      )       (  0.2500000 )
                  (     1          0         -1      )       (  0.2500000 )

 cart.    s(10) = (  0.0000000  0.0000000 -1.0000000 )    f =( -0.2500000 )
                  (  0.0000000 -1.0000000  0.0000000 )       (  0.2500000 )
                  ( -1.0000000  0.0000000  0.0000000 )       (  0.2500000 )


      isym = 11      90 deg rotation - cart. axis [0,1,0]        

 cryst.   s(11) = (     0          1         -1      )    f =(  0.2500000 )
                  (    -1          1          0      )       (  0.2500000 )
                  (     0          1          0      )       (  0.2500000 )

 cart.    s(11) = (  0.0000000  0.0000000  1.0000000 )    f =( -0.2500000 )
                  (  0.0000000  1.0000000  0.0000000 )       (  0.2500000 )
                  ( -1.0000000  0.0000000  0.0000000 )       (  0.2500000 )


      isym = 12      90 deg rotation - cart. axis [0,-1,0]       

 cryst.   s(12) = (     0         -1          1      )    f =(  0.2500000 )
                  (     0          0          1      )       (  0.2500000 )
                  (    -1          0          1      )       (  0.2500000 )

 cart.    s(12) = (  0.0000000  0.0000000 -1.0000000 )    f =( -0.2500000 )
                  (  0.0000000  1.0000000  0.0000000 )       (  0.2500000 )
                  (  1.0000000  0.0000000  0.0000000 )       (  0.2500000 )


      isym = 13     180 deg rotation - cart. axis [0,1,1]        

 cryst.   s(13) = (    -1          1          0      )    f =(  0.2500000 )
                  (     0          1          0      )       (  0.2500000 )
                  (     0          1         -1      )       (  0.2500000 )

 cart.    s(13) = ( -1.0000000  0.0000000  0.0000000 )    f =( -0.2500000 )
                  (  0.0000000  0.0000000  1.0000000 )       (  0.2500000 )
                  (  0.0000000  1.0000000  0.0000000 )       (  0.2500000 )


      isym = 14     180 deg rotation - cart. axis [0,1,-1]       

 cryst.   s(14) = (     0          0         -1      )    f =(  0.2500000 )
                  (     0         -1          0      )       (  0.2500000 )
                  (    -1          0          0      )       (  0.2500000 )

 cart.    s(14) = ( -1.0000000  0.0000000  0.0000000 )    f =( -0.2500000 )
                  (  0.0000000  0.0000000 -1.0000000 )       (  0.2500000 )
                  (  0.0000000 -1.0000000  0.0000000 )       (  0.2500000 )


      isym = 15      90 deg rotation - cart. axis [-1,0,0]       

 cryst.   s(15) = (     0          0          1      )    f =(  0.2500000 )
                  (    -1          0          1      )       (  0.2500000 )
                  (     0         -1          1      )       (  0.2500000 )

 cart.    s(15) = (  1.0000000  0.0000000  0.0000000 )    f =( -0.2500000 )
                  (  0.0000000  0.0000000  1.0000000 )       (  0.2500000 )
                  (  0.0000000 -1.0000000  0.0000000 )       (  0.2500000 )


      isym = 16      90 deg rotation - cart. axis [1,0,0]        

 cryst.   s(16) = (     1         -1          0      )    f =(  0.2500000 )
                  (     1          0         -1      )       (  0.2500000 )
                  (     1          0          0      )       (  0.2500000 )

 cart.    s(16) = (  1.0000000  0.0000000  0.0000000 )    f =( -0.2500000 )
                  (  0.0000000  0.0000000 -1.0000000 )       (  0.2500000 )
                  (  0.0000000  1.0000000  0.0000000 )       (  0.2500000 )


      isym = 17     120 deg rotation - cart. axis [-1,-1,-1]     

 cryst.   s(17) = (    -1          0          1      )
                  (    -1          1          0      )
                  (    -1          0          0      )

 cart.    s(17) = (  0.0000000  1.0000000  0.0000000 )
                  (  0.0000000  0.0000000  1.0000000 )
                  (  1.0000000  0.0000000  0.0000000 )


      isym = 18     120 deg rotation - cart. axis [-1,1,1]       

 cryst.   s(18) = (     0          1          0      )
                  (     0          0          1      )
                  (     1          0          0      )

 cart.    s(18) = (  0.0000000 -1.0000000  0.0000000 )
                  (  0.0000000  0.0000000  1.0000000 )
                  ( -1.0000000  0.0000000  0.0000000 )


      isym = 19     120 deg rotation - cart. axis [1,1,-1]       

 cryst.   s(19) = (     1          0         -1      )
                  (     0          0         -1      )
                  (     0          1         -1      )

 cart.    s(19) = (  0.0000000  1.0000000  0.0000000 )
                  (  0.0000000  0.0000000 -1.0000000 )
                  ( -1.0000000  0.0000000  0.0000000 )


      isym = 20     120 deg rotation - cart. axis [1,-1,1]       

 cryst.   s(20) = (     0         -1          0      )
                  (     1         -1          0      )
                  (     0         -1          1      )

 cart.    s(20) = (  0.0000000 -1.0000000  0.0000000 )
                  (  0.0000000  0.0000000 -1.0000000 )
                  (  1.0000000  0.0000000  0.0000000 )


      isym = 21     120 deg rotation - cart. axis [1,1,1]        

 cryst.   s(21) = (     0          0         -1      )
                  (     0          1         -1      )
                  (     1          0         -1      )

 cart.    s(21) = (  0.0000000  0.0000000  1.0000000 )
                  (  1.0000000  0.0000000  0.0000000 )
                  (  0.0000000  1.0000000  0.0000000 )


      isym = 22     120 deg rotation - cart. axis [-1,1,-1]      

 cryst.   s(22) = (    -1          1          0      )
                  (    -1          0          0      )
                  (    -1          0          1      )

 cart.    s(22) = (  0.0000000  0.0000000  1.0000000 )
                  ( -1.0000000  0.0000000  0.0000000 )
                  (  0.0000000 -1.0000000  0.0000000 )


      isym = 23     120 deg rotation - cart. axis [1,-1,-1]      

 cryst.   s(23) = (     0          0          1      )
                  (     1          0          0      )
                  (     0          1          0      )

 cart.    s(23) = (  0.0000000  0.0000000 -1.0000000 )
                  ( -1.0000000  0.0000000  0.0000000 )
                  (  0.0000000  1.0000000  0.0000000 )


      isym = 24     120 deg rotation - cart. axis [-1,-1,1]      

 cryst.   s(24) = (     1         -1          0      )
                  (     0         -1          1      )
                  (     0         -1          0      )

 cart.    s(24) = (  0.0000000  0.0000000 -1.0000000 )
                  (  1.0000000  0.0000000  0.0000000 )
                  (  0.0000000 -1.0000000  0.0000000 )


      isym = 25     inversion                                    

 cryst.   s(25) = (    -1          0          0      )    f =(  0.2500000 )
                  (     0         -1          0      )       (  0.2500000 )
                  (     0          0         -1      )       (  0.2500000 )

 cart.    s(25) = ( -1.0000000  0.0000000  0.0000000 )    f =( -0.2500000 )
                  (  0.0000000 -1.0000000  0.0000000 )       (  0.2500000 )
                  (  0.0000000  0.0000000 -1.0000000 )       (  0.2500000 )


      isym = 26     inv. 180 deg rotation - cart. axis [0,0,1]   

 cryst.   s(26) = (     0         -1          1      )    f =(  0.2500000 )
                  (    -1          0          1      )       (  0.2500000 )
                  (     0          0          1      )       (  0.2500000 )

 cart.    s(26) = (  1.0000000  0.0000000  0.0000000 )    f =( -0.2500000 )
                  (  0.0000000  1.0000000  0.0000000 )       (  0.2500000 )
                  (  0.0000000  0.0000000 -1.0000000 )       (  0.2500000 )


      isym = 27     inv. 180 deg rotation - cart. axis [0,1,0]   

 cryst.   s(27) = (     1          0          0      )    f =(  0.2500000 )
                  (     1          0         -1      )       (  0.2500000 )
                  (     1         -1          0      )       (  0.2500000 )

 cart.    s(27) = (  1.0000000  0.0000000  0.0000000 )    f =( -0.2500000 )
                  (  0.0000000 -1.0000000  0.0000000 )       (  0.2500000 )
                  (  0.0000000  0.0000000  1.0000000 )       (  0.2500000 )


      isym = 28     inv. 180 deg rotation - cart. axis [1,0,0]   

 cryst.   s(28) = (     0          1         -1      )    f =(  0.2500000 )
                  (     0          1          0      )       (  0.2500000 )
                  (    -1          1          0      )       (  0.2500000 )

 cart.    s(28) = ( -1.0000000  0.0000000  0.0000000 )    f =( -0.2500000 )
                  (  0.0000000  1.0000000  0.0000000 )       (  0.2500000 )
                  (  0.0000000  0.0000000  1.0000000 )       (  0.2500000 )


      isym = 29     inv. 180 deg rotation - cart. axis [1,1,0]   

 cryst.   s(29) = (     0          1          0      )
                  (     1          0          0      )
                  (     0          0          1      )

 cart.    s(29) = (  0.0000000 -1.0000000  0.0000000 )
                  ( -1.0000000  0.0000000  0.0000000 )
                  (  0.0000000  0.0000000  1.0000000 )


      isym = 30     inv. 180 deg rotation - cart. axis [1,-1,0]  

 cryst.   s(30) = (     1          0         -1      )
                  (     0          1         -1      )
                  (     0          0         -1      )

 cart.    s(30) = (  0.0000000  1.0000000  0.0000000 )
                  (  1.0000000  0.0000000  0.0000000 )
                  (  0.0000000  0.0000000  1.0000000 )


      isym = 31     inv.  90 deg rotation - cart. axis [0,0,-1]  

 cryst.   s(31) = (     0         -1          0      )
                  (     0         -1          1      )
                  (     1         -1          0      )

 cart.    s(31) = (  0.0000000 -1.0000000  0.0000000 )
                  (  1.0000000  0.0000000  0.0000000 )
                  (  0.0000000  0.0000000 -1.0000000 )


      isym = 32     inv.  90 deg rotation - cart. axis [0,0,1]   

 cryst.   s(32) = (    -1          0          1      )
                  (    -1          0          0      )
                  (    -1          1          0      )

 cart.    s(32) = (  0.0000000  1.0000000  0.0000000 )
                  ( -1.0000000  0.0000000  0.0000000 )
                  (  0.0000000  0.0000000 -1.0000000 )


      isym = 33     inv. 180 deg rotation - cart. axis [1,0,1]   

 cryst.   s(33) = (     1          0          0      )
                  (     0          0          1      )
                  (     0          1          0      )

 cart.    s(33) = (  0.0000000  0.0000000 -1.0000000 )
                  (  0.0000000  1.0000000  0.0000000 )
                  ( -1.0000000  0.0000000  0.0000000 )


      isym = 34     inv. 180 deg rotation - cart. axis [-1,0,1]  

 cryst.   s(34) = (    -1          0          0      )
                  (    -1          1          0      )
                  (    -1          0          1      )

 cart.    s(34) = (  0.0000000  0.0000000  1.0000000 )
                  (  0.0000000  1.0000000  0.0000000 )
                  (  1.0000000  0.0000000  0.0000000 )


      isym = 35     inv.  90 deg rotation - cart. axis [0,1,0]   

 cryst.   s(35) = (     0         -1          1      )
                  (     1         -1          0      )
                  (     0         -1          0      )

 cart.    s(35) = (  0.0000000  0.0000000 -1.0000000 )
                  (  0.0000000 -1.0000000  0.0000000 )
                  (  1.0000000  0.0000000  0.0000000 )


      isym = 36     inv.  90 deg rotation - cart. axis [0,-1,0]  

 cryst.   s(36) = (     0          1         -1      )
                  (     0          0         -1      )
                  (     1          0         -1      )

 cart.    s(36) = (  0.0000000  0.0000000  1.0000000 )
                  (  0.0000000 -1.0000000  0.0000000 )
                  ( -1.0000000  0.0000000  0.0000000 )


      isym = 37     inv. 180 deg rotation - cart. axis [0,1,1]   

 cryst.   s(37) = (     1         -1          0      )
                  (     0         -1          0      )
                  (     0         -1          1      )

 cart.    s(37) = (  1.0000000  0.0000000  0.0000000 )
                  (  0.0000000  0.0000000 -1.0000000 )
                  (  0.0000000 -1.0000000  0.0000000 )


      isym = 38     inv. 180 deg rotation - cart. axis [0,1,-1]  

 cryst.   s(38) = (     0          0          1      )
                  (     0          1          0      )
                  (     1          0          0      )

 cart.    s(38) = (  1.0000000  0.0000000  0.0000000 )
                  (  0.0000000  0.0000000  1.0000000 )
                  (  0.0000000  1.0000000  0.0000000 )


      isym = 39     inv.  90 deg rotation - cart. axis [-1,0,0]  

 cryst.   s(39) = (     0          0         -1      )
                  (     1          0         -1      )
                  (     0          1         -1      )

 cart.    s(39) = ( -1.0000000  0.0000000  0.0000000 )
                  (  0.0000000  0.0000000 -1.0000000 )
                  (  0.0000000  1.0000000  0.0000000 )


      isym = 40     inv.  90 deg rotation - cart. axis [1,0,0]   

 cryst.   s(40) = (    -1          1          0      )
                  (    -1          0          1      )
                  (    -1          0          0      )

 cart.    s(40) = ( -1.0000000  0.0000000  0.0000000 )
                  (  0.0000000  0.0000000  1.0000000 )
                  (  0.0000000 -1.0000000  0.0000000 )


      isym = 41     inv. 120 deg rotation - cart. axis [-1,-1,-1]

 cryst.   s(41) = (     1          0         -1      )    f =(  0.2500000 )
                  (     1         -1          0      )       (  0.2500000 )
                  (     1          0          0      )       (  0.2500000 )

 cart.    s(41) = (  0.0000000 -1.0000000  0.0000000 )    f =( -0.2500000 )
                  (  0.0000000  0.0000000 -1.0000000 )       (  0.2500000 )
                  ( -1.0000000  0.0000000  0.0000000 )       (  0.2500000 )


      isym = 42     inv. 120 deg rotation - cart. axis [-1,1,1]  

 cryst.   s(42) = (     0         -1          0      )    f =(  0.2500000 )
                  (     0          0         -1      )       (  0.2500000 )
                  (    -1          0          0      )       (  0.2500000 )

 cart.    s(42) = (  0.0000000  1.0000000  0.0000000 )    f =( -0.2500000 )
                  (  0.0000000  0.0000000 -1.0000000 )       (  0.2500000 )
                  (  1.0000000  0.0000000  0.0000000 )       (  0.2500000 )


      isym = 43     inv. 120 deg rotation - cart. axis [1,1,-1]  

 cryst.   s(43) = (    -1          0          1      )    f =(  0.2500000 )
                  (     0          0          1      )       (  0.2500000 )
                  (     0         -1          1      )       (  0.2500000 )

 cart.    s(43) = (  0.0000000 -1.0000000  0.0000000 )    f =( -0.2500000 )
                  (  0.0000000  0.0000000  1.0000000 )       (  0.2500000 )
                  (  1.0000000  0.0000000  0.0000000 )       (  0.2500000 )


      isym = 44     inv. 120 deg rotation - cart. axis [1,-1,1]  

 cryst.   s(44) = (     0          1          0      )    f =(  0.2500000 )
                  (    -1          1          0      )       (  0.2500000 )
                  (     0          1         -1      )       (  0.2500000 )

 cart.    s(44) = (  0.0000000  1.0000000  0.0000000 )    f =( -0.2500000 )
                  (  0.0000000  0.0000000  1.0000000 )       (  0.2500000 )
                  ( -1.0000000  0.0000000  0.0000000 )       (  0.2500000 )


      isym = 45     inv. 120 deg rotation - cart. axis [1,1,1]   

 cryst.   s(45) = (     0          0          1      )    f =(  0.2500000 )
                  (     0         -1          1      )       (  0.2500000 )
                  (    -1          0          1      )       (  0.2500000 )

 cart.    s(45) = (  0.0000000  0.0000000 -1.0000000 )    f =( -0.2500000 )
                  ( -1.0000000  0.0000000  0.0000000 )       (  0.2500000 )
                  (  0.0000000 -1.0000000  0.0000000 )       (  0.2500000 )


      isym = 46     inv. 120 deg rotation - cart. axis [-1,1,-1] 

 cryst.   s(46) = (     1         -1          0      )    f =(  0.2500000 )
                  (     1          0          0      )       (  0.2500000 )
                  (     1          0         -1      )       (  0.2500000 )

 cart.    s(46) = (  0.0000000  0.0000000 -1.0000000 )    f =( -0.2500000 )
                  (  1.0000000  0.0000000  0.0000000 )       (  0.2500000 )
                  (  0.0000000  1.0000000  0.0000000 )       (  0.2500000 )


      isym = 47     inv. 120 deg rotation - cart. axis [1,-1,-1] 

 cryst.   s(47) = (     0          0         -1      )    f =(  0.2500000 )
                  (    -1          0          0      )       (  0.2500000 )
                  (     0         -1          0      )       (  0.2500000 )

 cart.    s(47) = (  0.0000000  0.0000000  1.0000000 )    f =( -0.2500000 )
                  (  1.0000000  0.0000000  0.0000000 )       (  0.2500000 )
                  (  0.0000000 -1.0000000  0.0000000 )       (  0.2500000 )


      isym = 48     inv. 120 deg rotation - cart. axis [-1,-1,1] 

 cryst.   s(48) = (    -1          1          0      )    f =(  0.2500000 )
                  (     0          1         -1      )       (  0.2500000 )
                  (     0          1          0      )       (  0.2500000 )

 cart.    s(48) = (  0.0000000  0.0000000  1.0000000 )    f =( -0.2500000 )
                  ( -1.0000000  0.0000000  0.0000000 )       (  0.2500000 )
                  (  0.0000000  1.0000000  0.0000000 )       (  0.2500000 )


     point group O_h (m-3m) 
     there are 10 classes
     the character table:

       E     8C3   3C2   6C4   6C2'  i     8S6   3s_h  6S4   6s_d 
A_1g   1.00  1.00  1.00  1.00  1.00  1.00  1.00  1.00  1.00  1.00
A_2g   1.00  1.00  1.00 -1.00 -1.00  1.00  1.00  1.00 -1.00 -1.00
E_g    2.00 -1.00  2.00  0.00  0.00  2.00 -1.00  2.00  0.00  0.00
T_1g   3.00  0.00 -1.00  1.00 -1.00  3.00  0.00 -1.00  1.00 -1.00
T_2g   3.00  0.00 -1.00 -1.00  1.00  3.00  0.00 -1.00 -1.00  1.00
A_1u   1.00  1.00  1.00  1.00  1.00 -1.00 -1.00 -1.00 -1.00 -1.00
A_2u   1.00  1.00  1.00 -1.00 -1.00 -1.00 -1.00 -1.00  1.00  1.00
E_u    2.00 -1.00  2.00  0.00  0.00 -2.00  1.00 -2.00  0.00  0.00
T_1u   3.00  0.00 -1.00  1.00 -1.00 -3.00  0.00  1.00 -1.00  1.00
T_2u   3.00  0.00 -1.00 -1.00  1.00 -3.00  0.00  1.00  1.00 -1.00

     the symmetry operations in each class and the name of the first element:

     E        1
          identity                                               
     8C3     17   19   20   18   24   21   22   23
          120 deg rotation - cart. axis [-1,-1,-1]               
     3C2      2    4    3
          180 deg rotation - cart. axis [0,0,1]                  
     6C4      7    8   15   16   12   11
           90 deg rotation - cart. axis [0,0,-1]                 
     6C2'     5    6   14   13   10    9
          180 deg rotation - cart. axis [1,1,0]                  
     i       25
          inversion                                              
     8S6     41   43   44   42   48   45   46   47
          inv. 120 deg rotation - cart. axis [-1,-1,-1]          
     3s_h    26   28   27
          inv. 180 deg rotation - cart. axis [0,0,1]             
     6S4     31   32   39   40   36   35
          inv.  90 deg rotation - cart. axis [0,0,-1]            
     6s_d    29   30   38   37   34   33
          inv. 180 deg rotation - cart. axis [1,1,0]             

   Cartesian axes

     site n.     atom                  positions (alat units)
         1           Si  tau(   1) = (   0.0000000   0.0000000   0.0000000  )
         2           Si  tau(   2) = (   0.2500000   0.2500000   0.2500000  )

   Crystallographic axes

     site n.     atom                  positions (cryst. coord.)
         1           Si  tau(   1) = (  0.0000000  0.0000000  0.0000000  )
         2           Si  tau(   2) = ( -0.2500000  0.7500000 -0.2500000  )

     number of k points=    60
                       cart. coord. in units 2pi/alat
        k(    1) = (  -0.0625000   0.0625000   0.0625000), wk =   0.0078125
        k(    2) = (  -0.1875000   0.1875000  -0.0625000), wk =   0.0234375
        k(    3) = (  -0.3125000   0.3125000  -0.1875000), wk =   0.0234375
        k(    4) = (  -0.4375000   0.4375000  -0.3125000), wk =   0.0234375
        k(    5) = (   0.4375000  -0.4375000   0.5625000), wk =   0.0234375
        k(    6) = (   0.3125000  -0.3125000   0.4375000), wk =   0.0234375
        k(    7) = (   0.1875000  -0.1875000   0.3125000), wk =   0.0234375
        k(    8) = (   0.0625000  -0.0625000   0.1875000), wk =   0.0234375
        k(    9) = (  -0.0625000   0.3125000   0.0625000), wk =   0.0234375
        k(   10) = (  -0.1875000   0.4375000  -0.0625000), wk =   0.0468750
        k(   11) = (  -0.3125000   0.5625000  -0.1875000), wk =   0.0468750
        k(   12) = (   0.5625000  -0.3125000   0.6875000), wk =   0.0468750
        k(   13) = (   0.4375000  -0.1875000   0.5625000), wk =   0.0468750
        k(   14) = (   0.3125000  -0.0625000   0.4375000), wk =   0.0468750
        k(   15) = (   0.1875000   0.0625000   0.3125000), wk =   0.0468750
        k(   16) = (  -0.0625000   0.5625000   0.0625000), wk =   0.0234375
        k(   17) = (  -0.1875000   0.6875000  -0.0625000), wk =   0.0468750
        k(   18) = (   0.6875000  -0.1875000   0.8125000), wk =   0.0468750
        k(   19) = (   0.5625000  -0.0625000   0.6875000), wk =   0.0468750
        k(   20) = (   0.4375000   0.0625000   0.5625000), wk =   0.0468750
        k(   21) = (   0.3125000   0.1875000   0.4375000), wk =   0.0468750
        k(   22) = (  -0.0625000   0.8125000   0.0625000), wk =   0.0234375
        k(   23) = (   0.8125000  -0.0625000   0.9375000), wk =   0.0468750
        k(   24) = (   0.6875000   0.0625000   0.8125000), wk =   0.0468750
        k(   25) = (   0.5625000   0.1875000   0.6875000), wk =   0.0468750
        k(   26) = (   0.4375000   0.3125000   0.5625000), wk =   0.0468750
        k(   27) = (  -0.0625000  -0.9375000   0.0625000), wk =   0.0234375
        k(   28) = (  -0.1875000  -0.8125000  -0.0625000), wk =   0.0468750
        k(   29) = (  -0.3125000  -0.6875000  -0.1875000), wk =   0.0468750
        k(   30) = (  -0.0625000  -0.6875000   0.0625000), wk =   0.0234375
        k(   31) = (  -0.1875000  -0.5625000  -0.0625000), wk =   0.0468750
        k(   32) = (  -0.0625000  -0.4375000   0.0625000), wk =   0.0234375
        k(   33) = (  -0.1875000   0.1875000   0.1875000), wk =   0.0078125
        k(   34) = (  -0.3125000   0.3125000   0.0625000), wk =   0.0234375
        k(   35) = (  -0.4375000   0.4375000  -0.0625000), wk =   0.0234375
        k(   36) = (   0.4375000  -0.4375000   0.8125000), wk =   0.0234375
        k(   37) = (   0.3125000  -0.3125000   0.6875000), wk =   0.0234375
        k(   38) = (   0.1875000  -0.1875000   0.5625000), wk =   0.0234375
        k(   39) = (  -0.1875000   0.4375000   0.1875000), wk =   0.0234375
        k(   40) = (  -0.3125000   0.5625000   0.0625000), wk =   0.0468750
        k(   41) = (   0.5625000  -0.3125000   0.9375000), wk =   0.0468750
        k(   42) = (   0.4375000  -0.1875000   0.8125000), wk =   0.0468750
        k(   43) = (   0.3125000  -0.0625000   0.6875000), wk =   0.0468750
        k(   44) = (  -0.1875000   0.6875000   0.1875000), wk =   0.0234375
        k(   45) = (   0.6875000  -0.1875000   1.0625000), wk =   0.0468750
        k(   46) = (   0.5625000  -0.0625000   0.9375000), wk =   0.0468750
        k(   47) = (   0.4375000   0.0625000   0.8125000), wk =   0.0468750
        k(   48) = (  -0.1875000  -1.0625000   0.1875000), wk =   0.0234375
        k(   49) = (  -0.3125000  -0.9375000   0.0625000), wk =   0.0468750
        k(   50) = (  -0.1875000  -0.8125000   0.1875000), wk =   0.0234375
        k(   51) = (  -0.3125000   0.3125000   0.3125000), wk =   0.0078125
        k(   52) = (  -0.4375000   0.4375000   0.1875000), wk =   0.0234375
        k(   53) = (   0.4375000  -0.4375000   1.0625000), wk =   0.0234375
        k(   54) = (   0.3125000  -0.3125000   0.9375000), wk =   0.0234375
        k(   55) = (  -0.3125000   0.5625000   0.3125000), wk =   0.0234375
        k(   56) = (   0.5625000  -0.3125000   1.1875000), wk =   0.0468750
        k(   57) = (   0.4375000  -0.1875000   1.0625000), wk =   0.0468750
        k(   58) = (  -0.3125000  -1.1875000   0.3125000), wk =   0.0234375
        k(   59) = (  -0.4375000   0.4375000   0.4375000), wk =   0.0078125
        k(   60) = (   0.4375000  -0.4375000   1.3125000), wk =   0.0234375

                       cryst. coord.
        k(    1) = (   0.0625000   0.0625000   0.0625000), wk =   0.0078125
        k(    2) = (   0.0625000   0.0625000   0.1875000), wk =   0.0234375
        k(    3) = (   0.0625000   0.0625000   0.3125000), wk =   0.0234375
        k(    4) = (   0.0625000   0.0625000   0.4375000), wk =   0.0234375
        k(    5) = (   0.0625000   0.0625000  -0.4375000), wk =   0.0234375
        k(    6) = (   0.0625000   0.0625000  -0.3125000), wk =   0.0234375
        k(    7) = (   0.0625000   0.0625000  -0.1875000), wk =   0.0234375
        k(    8) = (   0.0625000   0.0625000  -0.0625000), wk =   0.0234375
        k(    9) = (   0.0625000   0.1875000   0.1875000), wk =   0.0234375
        k(   10) = (   0.0625000   0.1875000   0.3125000), wk =   0.0468750
        k(   11) = (   0.0625000   0.1875000   0.4375000), wk =   0.0468750
        k(   12) = (   0.0625000   0.1875000  -0.4375000), wk =   0.0468750
        k(   13) = (   0.0625000   0.1875000  -0.3125000), wk =   0.0468750
        k(   14) = (   0.0625000   0.1875000  -0.1875000), wk =   0.0468750
        k(   15) = (   0.0625000   0.1875000  -0.0625000), wk =   0.0468750
        k(   16) = (   0.0625000   0.3125000   0.3125000), wk =   0.0234375
        k(   17) = (   0.0625000   0.3125000   0.4375000), wk =   0.0468750
        k(   18) = (   0.0625000   0.3125000  -0.4375000), wk =   0.0468750
        k(   19) = (   0.0625000   0.3125000  -0.3125000), wk =   0.0468750
        k(   20) = (   0.0625000   0.3125000  -0.1875000), wk =   0.0468750
        k(   21) = (   0.0625000   0.3125000  -0.0625000), wk =   0.0468750
        k(   22) = (   0.0625000   0.4375000   0.4375000), wk =   0.0234375
        k(   23) = (   0.0625000   0.4375000  -0.4375000), wk =   0.0468750
        k(   24) = (   0.0625000   0.4375000  -0.3125000), wk =   0.0468750
        k(   25) = (   0.0625000   0.4375000  -0.1875000), wk =   0.0468750
        k(   26) = (   0.0625000   0.4375000  -0.0625000), wk =   0.0468750
        k(   27) = (   0.0625000  -0.4375000  -0.4375000), wk =   0.0234375
        k(   28) = (   0.0625000  -0.4375000  -0.3125000), wk =   0.0468750
        k(   29) = (   0.0625000  -0.4375000  -0.1875000), wk =   0.0468750
        k(   30) = (   0.0625000  -0.3125000  -0.3125000), wk =   0.0234375
        k(   31) = (   0.0625000  -0.3125000  -0.1875000), wk =   0.0468750
        k(   32) = (   0.0625000  -0.1875000  -0.1875000), wk =   0.0234375
        k(   33) = (   0.1875000   0.1875000   0.1875000), wk =   0.0078125
        k(   34) = (   0.1875000   0.1875000   0.3125000), wk =   0.0234375
        k(   35) = (   0.1875000   0.1875000   0.4375000), wk =   0.0234375
        k(   36) = (   0.1875000   0.1875000  -0.4375000), wk =   0.0234375
        k(   37) = (   0.1875000   0.1875000  -0.3125000), wk =   0.0234375
        k(   38) = (   0.1875000   0.1875000  -0.1875000), wk =   0.0234375
        k(   39) = (   0.1875000   0.3125000   0.3125000), wk =   0.0234375
        k(   40) = (   0.1875000   0.3125000   0.4375000), wk =   0.0468750
        k(   41) = (   0.1875000   0.3125000  -0.4375000), wk =   0.0468750
        k(   42) = (   0.1875000   0.3125000  -0.3125000), wk =   0.0468750
        k(   43) = (   0.1875000   0.3125000  -0.1875000), wk =   0.0468750
        k(   44) = (   0.1875000   0.4375000   0.4375000), wk =   0.0234375
        k(   45) = (   0.1875000   0.4375000  -0.4375000), wk =   0.0468750
        k(   46) = (   0.1875000   0.4375000  -0.3125000), wk =   0.0468750
        k(   47) = (   0.1875000   0.4375000  -0.1875000), wk =   0.0468750
        k(   48) = (   0.1875000  -0.4375000  -0.4375000), wk =   0.0234375
        k(   49) = (   0.1875000  -0.4375000  -0.3125000), wk =   0.0468750
        k(   50) = (   0.1875000  -0.3125000  -0.3125000), wk =   0.0234375
        k(   51) = (   0.3125000   0.3125000   0.3125000), wk =   0.0078125
        k(   52) = (   0.3125000   0.3125000   0.4375000), wk =   0.0234375
        k(   53) = (   0.3125000   0.3125000  -0.4375000), wk =   0.0234375
        k(   54) = (   0.3125000   0.3125000  -0.3125000), wk =   0.0234375
        k(   55) = (   0.3125000   0.4375000   0.4375000), wk =   0.0234375
        k(   56) = (   0.3125000   0.4375000  -0.4375000), wk =   0.0468750
        k(   57) = (   0.3125000   0.4375000  -0.3125000), wk =   0.0468750
        k(   58) = (   0.3125000  -0.4375000  -0.4375000), wk =   0.0234375
        k(   59) = (   0.4375000   0.4375000   0.4375000), wk =   0.0078125
        k(   60) = (   0.4375000   0.4375000  -0.4375000), wk =   0.0234375

     Dense  grid:     3143 G-vectors     FFT dimensions: (  24,  24,  24)

     Dynamical RAM for                 wfc:       0.01 MB

     Dynamical RAM for     wfc (w. buffer):       0.74 MB

     Dynamical RAM for                 EXX:     101.21 MB

     Dynamical RAM for           str. fact:       0.02 MB

     Dynamical RAM for           local pot:       0.00 MB

     Dynamical RAM for          nlocal pot:       0.03 MB

     Dynamical RAM for                qrad:       0.24 MB

     Dynamical RAM for          rho,v,vnew:       0.23 MB

     Dynamical RAM for               rhoin:       0.08 MB

     Dynamical RAM for            rho*nmix:       0.38 MB

     Dynamical RAM for           G-vectors:       0.10 MB

     Dynamical RAM for          h,s,v(r/c):       0.01 MB

     Dynamical RAM for          <psi|beta>:       0.00 MB

     Dynamical RAM for                 psi:       0.05 MB

     Dynamical RAM for                hpsi:       0.05 MB

     Dynamical RAM for      wfcinit/wfcrot:       0.05 MB

     Estimated static dynamical RAM per process >     103.36 MB

     Estimated max dynamical RAM per process >     103.47 MB

     Estimated total dynamical RAM >     206.93 MB

     Initial potential from superposition of free atoms

     starting charge    7.99889, renormalised to    8.00000
     Starting wfcs are    8 randomized atomic wfcs

     total cpu time spent up to now is        0.3 secs

     Self-consistent Calculation

     iteration #  1     ecut=    20.00 Ry     beta= 0.30
     Davidson diagonalization with overlap
     ethr =  1.00E-02,  avg # of iterations =  2.0

     Threshold (ethr) on eigenvalues was too large:
     Diagonalizing with lowered threshold

     Davidson diagonalization with overlap
     ethr =  7.51E-04,  avg # of iterations =  1.1

     total cpu time spent up to now is        0.6 secs

     total energy              =     -15.74310865 Ry
     Harris-Foulkes estimate   =     -15.75125660 Ry
     estimated scf accuracy    <       0.05938007 Ry

     iteration #  2     ecut=    20.00 Ry     beta= 0.30
     Davidson diagonalization with overlap
     ethr =  7.42E-04,  avg # of iterations =  1.0

     total cpu time spent up to now is        0.7 secs

     total energy              =     -15.73778699 Ry
     Harris-Foulkes estimate   =     -15.74362459 Ry
     estimated scf accuracy    <       0.02610104 Ry

     iteration #  3     ecut=    20.00 Ry     beta= 0.30
     Davidson diagonalization with overlap
     ethr =  3.26E-04,  avg # of iterations =  1.0

     total cpu time spent up to now is        0.8 secs

     total energy              =     -15.73943236 Ry
     Harris-Foulkes estimate   =     -15.73947758 Ry
     estimated scf accuracy    <       0.00037474 Ry

     iteration #  4     ecut=    20.00 Ry     beta= 0.30
     Davidson diagonalization with overlap
     ethr =  4.68E-06,  avg # of iterations =  3.1

     total cpu time spent up to now is        1.0 secs

     total energy              =     -15.73968442 Ry
     Harris-Foulkes estimate   =     -15.73972808 Ry
     estimated scf accuracy    <       0.00010895 Ry

     iteration #  5     ecut=    20.00 Ry     beta= 0.30
     Davidson diagonalization with overlap
     ethr =  1.36E-06,  avg # of iterations =  2.0

     total cpu time spent up to now is        1.1 secs

     total energy              =     -15.73969657 Ry
     Harris-Foulkes estimate   =     -15.73969728 Ry
     estimated scf accuracy    <       0.00000208 Ry

     iteration #  6     ecut=    20.00 Ry     beta= 0.30
     Davidson diagonalization with overlap
     ethr =  2.60E-08,  avg # of iterations =  3.0

     total cpu time spent up to now is        1.3 secs

     total energy              =     -15.73969791 Ry
     Harris-Foulkes estimate   =     -15.73969761 Ry
     estimated scf accuracy    <       0.00000008 Ry

     iteration #  7     ecut=    20.00 Ry     beta= 0.30
     Davidson diagonalization with overlap
     ethr =  1.01E-09,  avg # of iterations =  3.0

     total cpu time spent up to now is        1.5 secs

     total energy              =     -15.73969767 Ry
     Harris-Foulkes estimate   =     -15.73969802 Ry
     estimated scf accuracy    <       0.00000117 Ry

     iteration #  8     ecut=    20.00 Ry     beta= 0.30
     Davidson diagonalization with overlap
     ethr =  1.01E-09,  avg # of iterations =  3.0

     total cpu time spent up to now is        1.7 secs

     total energy              =     -15.73969776 Ry
     Harris-Foulkes estimate   =     -15.73969776 Ry
     estimated scf accuracy    <          2.9E-09 Ry

     iteration #  9     ecut=    20.00 Ry     beta= 0.30
     Davidson diagonalization with overlap
     ethr =  3.66E-11,  avg # of iterations =  2.2

     total cpu time spent up to now is        1.8 secs

     End of self-consistent calculation

          k =-0.0625 0.0625 0.0625 (   405 PWs)   bands (ev):

    -5.5545   5.8996   6.3343   6.3343

     occupation numbers 
     1.0000   1.0000   1.0000   1.0000

          k =-0.1875 0.1875-0.0625 (   391 PWs)   bands (ev):

    -5.2791   4.3982   5.5052   6.2185

     occupation numbers 
     1.0000   1.0000   1.0000   1.0000

          k =-0.3125 0.3125-0.1875 (   396 PWs)   bands (ev):

    -4.6132   2.1288   5.0143   5.7464

     occupation numbers 
     1.0000   1.0000   1.0000   1.0000

          k =-0.4375 0.4375-0.3125 (   403 PWs)   bands (ev):

    -3.6775   0.1902   4.8000   5.3299

     occupation numbers 
     1.0000   1.0000   1.0000   1.0000

          k = 0.4375-0.4375 0.5625 (   401 PWs)   bands (ev):

    -3.2044  -0.5398   4.8557   5.1044

     occupation numbers 
     1.0000   1.0000   1.0000   1.0000

          k = 0.3125-0.3125 0.4375 (   405 PWs)   bands (ev):

    -3.9995   0.7659   5.1217   5.1501

     occupation numbers 
     1.0000   1.0000   1.0000   1.0000

          k = 0.1875-0.1875 0.3125 (   390 PWs)   bands (ev):

    -4.8746   2.8746   5.4006   5.6230

     occupation numbers 
     1.0000   1.0000   1.0000   1.0000

          k = 0.0625-0.0625 0.1875 (   393 PWs)   bands (ev):

    -5.4161   5.1600   5.8926   6.0713

     occupation numbers 
     1.0000   1.0000   1.0000   1.0000

          k =-0.0625 0.3125 0.0625 (   394 PWs)   bands (ev):

    -5.1407   4.2814   5.3182   5.4237

     occupation numbers 
     1.0000   1.0000   1.0000   1.0000

          k =-0.1875 0.4375-0.0625 (   393 PWs)   bands (ev):

    -4.6014   2.7599   4.3278   5.1544

     occupation numbers 
     1.0000   1.0000   1.0000   1.0000

          k =-0.3125 0.5625-0.1875 (   400 PWs)   bands (ev):

    -3.7286   0.8430   3.8416   4.7248

     occupation numbers 
     1.0000   1.0000   1.0000   1.0000

          k = 0.5625-0.3125 0.6875 (   398 PWs)   bands (ev):

    -2.9297  -0.4165   3.5522   4.6259

     occupation numbers 
     1.0000   1.0000   1.0000   1.0000

          k = 0.4375-0.1875 0.5625 (   400 PWs)   bands (ev):

    -3.4120   0.3044   3.4678   4.9228

     occupation numbers 
     1.0000   1.0000   1.0000   1.0000

          k = 0.3125-0.0625 0.4375 (   399 PWs)   bands (ev):

    -4.3456   2.0911   3.7564   5.4491

     occupation numbers 
     1.0000   1.0000   1.0000   1.0000

          k = 0.1875 0.0625 0.3125 (   392 PWs)   bands (ev):

    -5.0065   3.5816   4.9132   5.8358

     occupation numbers 
     1.0000   1.0000   1.0000   1.0000

          k =-0.0625 0.5625 0.0625 (   405 PWs)   bands (ev):

    -4.1904   2.2815   4.1793   4.3028

     occupation numbers 
     1.0000   1.0000   1.0000   1.0000

          k =-0.1875 0.6875-0.0625 (   405 PWs)   bands (ev):

    -3.4163   1.0190   3.3661   3.9438

     occupation numbers 
     1.0000   1.0000   1.0000   1.0000

          k = 0.6875-0.1875 0.8125 (   404 PWs)   bands (ev):

    -2.4824  -0.2230   2.5007   3.9122

     occupation numbers 
     1.0000   1.0000   1.0000   1.0000

          k = 0.5625-0.0625 0.6875 (   397 PWs)   bands (ev):

    -2.5527  -0.1285   2.1303   4.2692

     occupation numbers 
     1.0000   1.0000   1.0000   1.0000

          k = 0.4375 0.0625 0.5625 (   404 PWs)   bands (ev):

    -3.4833   0.8344   2.7637   4.8757

     occupation numbers 
     1.0000   1.0000   1.0000   1.0000

          k = 0.3125 0.1875 0.4375 (   399 PWs)   bands (ev):

    -4.2279   1.4471   4.4634   5.3490

     occupation numbers 
     1.0000   1.0000   1.0000   1.0000

          k =-0.0625 0.8125 0.0625 (   407 PWs)   bands (ev):

    -2.7461   0.1412   3.4673   3.6955

     occupation numbers 
     1.0000   1.0000   1.0000   1.0000

          k = 0.8125-0.0625 0.9375 (   407 PWs)   bands (ev):

    -1.8069  -0.8716   2.8840   3.4402

     occupation numbers 
     1.0000   1.0000   1.0000   1.0000

          k = 0.6875 0.0625 0.8125 (   401 PWs)   bands (ev):

    -1.8925  -0.7112   2.1229   3.7651

     occupation numbers 
     1.0000   1.0000   1.0000   1.0000

          k = 0.5625 0.1875 0.6875 (   403 PWs)   bands (ev):

    -2.6678  -0.3459   2.7324   4.3861

     occupation numbers 
     1.0000   1.0000   1.0000   1.0000

          k = 0.4375 0.3125 0.5625 (   398 PWs)   bands (ev):

    -3.2978  -0.2233   4.2959   4.9994

     occupation numbers 
     1.0000   1.0000   1.0000   1.0000

          k =-0.0625-0.9375 0.0625 (   400 PWs)   bands (ev):

    -1.8633  -0.8923   3.3258   3.5717

     occupation numbers 
     1.0000   1.0000   1.0000   1.0000

          k =-0.1875-0.8125-0.0625 (   407 PWs)   bands (ev):

    -2.6557   0.0771   3.0492   3.6034

     occupation numbers 
     1.0000   1.0000   1.0000   1.0000

          k =-0.3125-0.6875-0.1875 (   402 PWs)   bands (ev):

    -3.1340   0.2993   3.1404   4.2220

     occupation numbers 
     1.0000   1.0000   1.0000   1.0000

          k =-0.0625-0.6875 0.0625 (   403 PWs)   bands (ev):

    -3.5260   1.2108   3.7515   3.9412

     occupation numbers 
     1.0000   1.0000   1.0000   1.0000

          k =-0.1875-0.5625-0.0625 (   402 PWs)   bands (ev):

    -4.0688   1.9146   3.8034   4.4747

     occupation numbers 
     1.0000   1.0000   1.0000   1.0000

          k =-0.0625-0.4375 0.0625 (   398 PWs)   bands (ev):

    -4.7307   3.3160   4.7474   4.7696

     occupation numbers 
     1.0000   1.0000   1.0000   1.0000

          k =-0.1875 0.1875 0.1875 (   387 PWs)   bands (ev):

    -5.1437   3.6542   5.8829   5.8829

     occupation numbers 
     1.0000   1.0000   1.0000   1.0000

          k =-0.3125 0.3125 0.0625 (   390 PWs)   bands (ev):

    -4.7401   2.8236   4.3251   5.9087

     occupation numbers 
     1.0000   1.0000   1.0000   1.0000

          k =-0.4375 0.4375-0.0625 (   402 PWs)   bands (ev):

    -3.9692   1.4395   3.2119   5.3876

     occupation numbers 
     1.0000   1.0000   1.0000   1.0000

          k = 0.4375-0.4375 0.8125 (   404 PWs)   bands (ev):

    -3.0370  -0.1094   3.0757   4.8386

     occupation numbers 
     1.0000   1.0000   1.0000   1.0000

          k = 0.3125-0.3125 0.6875 (   401 PWs)   bands (ev):

    -3.0217  -0.1377   3.3907   4.5087

     occupation numbers 
     1.0000   1.0000   1.0000   1.0000

          k = 0.1875-0.1875 0.5625 (   399 PWs)   bands (ev):

    -3.9531   1.4350   4.0166   4.4811

     occupation numbers 
     1.0000   1.0000   1.0000   1.0000

          k =-0.1875 0.4375 0.1875 (   396 PWs)   bands (ev):

    -4.4756   2.1371   4.8760   4.9113

     occupation numbers 
     1.0000   1.0000   1.0000   1.0000

          k =-0.3125 0.5625 0.0625 (   405 PWs)   bands (ev):

    -3.8298   1.3855   3.2694   4.7143

     occupation numbers 
     1.0000   1.0000   1.0000   1.0000

          k = 0.5625-0.3125 0.9375 (   403 PWs)   bands (ev):

    -2.9063   0.2689   2.4485   4.1201

     occupation numbers 
     1.0000   1.0000   1.0000   1.0000

          k = 0.4375-0.1875 0.8125 (   402 PWs)   bands (ev):

    -2.3953  -0.3746   2.4630   3.7928

     occupation numbers 
     1.0000   1.0000   1.0000   1.0000

          k = 0.3125-0.0625 0.6875 (   406 PWs)   bands (ev):

    -3.2042   0.6775   2.8900   3.9804

     occupation numbers 
     1.0000   1.0000   1.0000   1.0000

          k =-0.1875 0.6875 0.1875 (   402 PWs)   bands (ev):

    -3.3179   0.7259   3.2435   4.1414

     occupation numbers 
     1.0000   1.0000   1.0000   1.0000

          k = 0.6875-0.1875 1.0625 (   403 PWs)   bands (ev):

    -2.4875  -0.0679   2.6304   3.4211

     occupation numbers 
     1.0000   1.0000   1.0000   1.0000

          k = 0.5625-0.0625 0.9375 (   403 PWs)   bands (ev):

    -1.6473  -0.8366   2.2902   2.8976

     occupation numbers 
     1.0000   1.0000   1.0000   1.0000

          k = 0.4375 0.0625 0.8125 (   401 PWs)   bands (ev):

    -2.2700  -0.2855   2.2915   3.3923

     occupation numbers 
     1.0000   1.0000   1.0000   1.0000

          k =-0.1875-1.0625 0.1875 (   405 PWs)   bands (ev):

    -1.8212  -0.8241   2.4005   3.7898

     occupation numbers 
     1.0000   1.0000   1.0000   1.0000

          k =-0.3125-0.9375 0.0625 (   401 PWs)   bands (ev):

    -1.7183  -0.8475   2.4981   3.1268

     occupation numbers 
     1.0000   1.0000   1.0000   1.0000

          k =-0.1875-0.8125 0.1875 (   405 PWs)   bands (ev):

    -2.5889  -0.0359   2.6841   3.9082

     occupation numbers 
     1.0000   1.0000   1.0000   1.0000

          k =-0.3125 0.3125 0.3125 (   401 PWs)   bands (ev):

    -4.3634   1.4034   5.4621   5.4621

     occupation numbers 
     1.0000   1.0000   1.0000   1.0000

          k =-0.4375 0.4375 0.1875 (   400 PWs)   bands (ev):

    -3.8674   0.8241   3.9684   5.3741

     occupation numbers 
     1.0000   1.0000   1.0000   1.0000

          k = 0.4375-0.4375 1.0625 (   403 PWs)   bands (ev):

    -3.0473   0.3230   2.3671   4.7716

     occupation numbers 
     1.0000   1.0000   1.0000   1.0000

          k = 0.3125-0.3125 0.9375 (   400 PWs)   bands (ev):

    -2.1928  -0.4644   2.0036   4.2066

     occupation numbers 
     1.0000   1.0000   1.0000   1.0000

          k =-0.3125 0.5625 0.3125 (   401 PWs)   bands (ev):

    -3.5399   0.2467   4.3285   4.7888

     occupation numbers 
     1.0000   1.0000   1.0000   1.0000

          k = 0.5625-0.3125 1.1875 (   403 PWs)   bands (ev):

    -2.8969  -0.0973   2.9661   4.2909

     occupation numbers 
     1.0000   1.0000   1.0000   1.0000

          k = 0.4375-0.1875 1.0625 (   398 PWs)   bands (ev):

    -2.0518  -0.5214   2.0981   3.5498

     occupation numbers 
     1.0000   1.0000   1.0000   1.0000

          k =-0.3125-1.1875 0.3125 (   400 PWs)   bands (ev):

    -2.5231  -0.3737   2.5458   4.3096

     occupation numbers 
     1.0000   1.0000   1.0000   1.0000

          k =-0.4375 0.4375 0.4375 (   401 PWs)   bands (ev):

    -3.4343  -0.2949   5.2382   5.2382

     occupation numbers 
     1.0000   1.0000   1.0000   1.0000

          k = 0.4375-0.4375 1.3125 (   399 PWs)   bands (ev):

    -3.0679  -0.4692   3.9989   4.9588

     occupation numbers 
     1.0000   1.0000   1.0000   1.0000

     highest occupied level (ev):     6.3343

!    total energy              =     -15.73969776 Ry
     Harris-Foulkes estimate   =     -15.73969776 Ry
     estimated scf accuracy    <          2.7E-10 Ry

     convergence has been achieved in   9 iterations

     Using ACE for calculation of exact exchange

     EXX grid:     3143 G-vectors     FFT dimensions: (  24,  24,  24)

     EXX: now go back to refine exchange calculation

     total cpu time spent up to now is       16.9 secs

     Self-consistent Calculation

     iteration #  1     ecut=    20.00 Ry     beta= 0.30
     Davidson diagonalization with overlap
     ethr =  3.66E-11,  avg # of iterations =  8.7

     total cpu time spent up to now is       17.3 secs

     total energy              =     -15.75109667 Ry
     Harris-Foulkes estimate   =     -15.75110173 Ry
[...]

          k =-0.0625-0.4375 0.0625 (   398 PWs)   bands (ev):

    -6.7562   2.3070   3.9124   3.9356

     occupation numbers 
     1.0000   1.0000   1.0000   1.0000

          k =-0.1875 0.1875 0.1875 (   387 PWs)   bands (ev):

    -7.2198   2.7559   5.1356   5.1356

     occupation numbers 
     1.0000   1.0000   1.0000   1.0000

          k =-0.3125 0.3125 0.0625 (   390 PWs)   bands (ev):

    -6.7652   1.7546   3.5023   5.1655

     occupation numbers 
     1.0000   1.0000   1.0000   1.0000

          k =-0.4375 0.4375-0.0625 (   402 PWs)   bands (ev):

    -5.9111   0.1725   2.2477   4.5812

     occupation numbers 
     1.0000   1.0000   1.0000   1.0000

          k = 0.4375-0.4375 0.8125 (   404 PWs)   bands (ev):

    -4.8619  -1.5978   2.0847   3.9625

     occupation numbers 
     1.0000   1.0000   1.0000   1.0000

          k = 0.3125-0.3125 0.6875 (   401 PWs)   bands (ev):

    -4.8522  -1.6273   2.4404   3.6024

     occupation numbers 
     1.0000   1.0000   1.0000   1.0000

          k = 0.1875-0.1875 0.5625 (   399 PWs)   bands (ev):

    -5.8878   0.1672   3.1626   3.5707

     occupation numbers 
     1.0000   1.0000   1.0000   1.0000

          k =-0.1875 0.4375 0.1875 (   396 PWs)   bands (ev):

    -6.4628   0.9478   4.0545   4.1122

     occupation numbers 
     1.0000   1.0000   1.0000   1.0000

          k =-0.3125 0.5625 0.0625 (   405 PWs)   bands (ev):

    -5.7506   0.1108   2.2789   3.8978

     occupation numbers 
     1.0000   1.0000   1.0000   1.0000

          k = 0.5625-0.3125 0.9375 (   403 PWs)   bands (ev):

    -4.7108  -1.1644   1.3282   3.2337

     occupation numbers 
     1.0000   1.0000   1.0000   1.0000

          k = 0.4375-0.1875 0.8125 (   402 PWs)   bands (ev):

    -4.1471  -1.8844   1.3266   2.8724

     occupation numbers 
     1.0000   1.0000   1.0000   1.0000

          k = 0.3125-0.0625 0.6875 (   406 PWs)   bands (ev):

    -5.0495  -0.6933   1.8377   3.0874

     occupation numbers 
     1.0000   1.0000   1.0000   1.0000

          k =-0.1875 0.6875 0.1875 (   402 PWs)   bands (ev):

    -5.1825  -0.6272   2.2549   3.1753

     occupation numbers 
     1.0000   1.0000   1.0000   1.0000

          k = 0.6875-0.1875 1.0625 (   403 PWs)   bands (ev):

    -4.2476  -1.5361   1.5559   2.4371

     occupation numbers 
     1.0000   1.0000   1.0000   1.0000

          k = 0.5625-0.0625 0.9375 (   403 PWs)   bands (ev):

    -3.3207  -2.3916   1.1463   1.8644

     occupation numbers 
     1.0000   1.0000   1.0000   1.0000

          k = 0.4375 0.0625 0.8125 (   401 PWs)   bands (ev):

    -4.0119  -1.7729   1.1503   2.4348

     occupation numbers 
     1.0000   1.0000   1.0000   1.0000

          k =-0.1875-1.0625 0.1875 (   405 PWs)   bands (ev):

    -3.4928  -2.3956   1.2928   2.7687

     occupation numbers 
     1.0000   1.0000   1.0000   1.0000

          k =-0.3125-0.9375 0.0625 (   401 PWs)   bands (ev):

    -3.3889  -2.4140   1.4035   2.0995

     occupation numbers 
     1.0000   1.0000   1.0000   1.0000

          k =-0.1875-0.8125 0.1875 (   405 PWs)   bands (ev):

    -4.3544  -1.5097   1.6055   2.9016

     occupation numbers 
     1.0000   1.0000   1.0000   1.0000

          k =-0.3125 0.3125 0.3125 (   401 PWs)   bands (ev):

    -6.3267   0.0828   4.6373   4.6373

     occupation numbers 
     1.0000   1.0000   1.0000   1.0000

          k =-0.4375 0.4375 0.1875 (   400 PWs)   bands (ev):

    -5.7859  -0.5547   3.0837   4.5542

     occupation numbers 
     1.0000   1.0000   1.0000   1.0000

          k = 0.4375-0.4375 1.0625 (   403 PWs)   bands (ev):

    -4.8626  -1.1184   1.2287   3.8751

     occupation numbers 
     1.0000   1.0000   1.0000   1.0000

          k = 0.3125-0.3125 0.9375 (   400 PWs)   bands (ev):

    -3.9119  -1.9861   0.7813   3.2356

     occupation numbers 
     1.0000   1.0000   1.0000   1.0000

          k =-0.3125 0.5625 0.3125 (   401 PWs)   bands (ev):

    -5.4275  -1.1933   3.4847   3.9142

     occupation numbers 
     1.0000   1.0000   1.0000   1.0000

          k = 0.5625-0.3125 1.1875 (   403 PWs)   bands (ev):

    -4.7061  -1.5802   1.9211   3.4200

     occupation numbers 
     1.0000   1.0000   1.0000   1.0000

          k = 0.4375-0.1875 1.0625 (   398 PWs)   bands (ev):

    -3.7665  -2.0408   0.9029   2.5857

     occupation numbers 
     1.0000   1.0000   1.0000   1.0000

          k =-0.3125-1.1875 0.3125 (   400 PWs)   bands (ev):

    -4.2857  -1.8903   1.4323   3.3638

     occupation numbers 
     1.0000   1.0000   1.0000   1.0000

          k =-0.4375 0.4375 0.4375 (   401 PWs)   bands (ev):

    -5.3092  -1.7949   4.3840   4.3840

     occupation numbers 
     1.0000   1.0000   1.0000   1.0000

          k = 0.4375-0.4375 1.3125 (   399 PWs)   bands (ev):

    -4.8998  -1.9955   3.1136   4.0965

     occupation numbers 
     1.0000   1.0000   1.0000   1.0000

     highest occupied level (ev):     5.6109

!    total energy              =     -15.75148037 Ry
     Harris-Foulkes estimate   =     -15.75148037 Ry
     estimated scf accuracy    <          4.6E-10 Ry

     convergence has been achieved in   2 iterations

     Using ACE for calculation of exact exchange

     total energy              =     -15.75148037 Ry
     Harris-Foulkes estimate   =     -15.75148037 Ry
     est. exchange err (dexx)  =          3.6E-09 Ry
     - averaged Fock potential =       2.14212797 Ry
     + Fock energy (ACE)       =      -1.07107004 Ry

     EXX: now go back to refine exchange calculation

     total cpu time spent up to now is      111.4 secs

     Self-consistent Calculation

     iteration #  1     ecut=    20.00 Ry     beta= 0.30
     Davidson diagonalization with overlap
     ethr =  1.52E-11,  avg # of iterations =  2.8

     Threshold (ethr) on eigenvalues was too large:
     Diagonalizing with lowered threshold

     Davidson diagonalization with overlap
     ethr =  4.61E-13,  avg # of iterations =  1.9

     total cpu time spent up to now is      111.7 secs

     End of self-consistent calculation

          k =-0.0625 0.0625 0.0625 (   405 PWs)   bands (ev):

    -7.6675   5.1835   5.6110   5.6110

     occupation numbers 
     1.0000   1.0000   1.0000   1.0000

          k =-0.1875 0.1875-0.0625 (   391 PWs)   bands (ev):

    -7.3675   3.5817   4.7640   5.4993

     occupation numbers 
     1.0000   1.0000   1.0000   1.0000

          k =-0.3125 0.3125-0.1875 (   396 PWs)   bands (ev):

    -6.6145   0.9328   4.1975   4.9683

     occupation numbers 
     1.0000   1.0000   1.0000   1.0000

          k =-0.4375 0.4375-0.3125 (   403 PWs)   bands (ev):

    -5.5740  -1.2594   3.9491   4.4911

     occupation numbers 
     1.0000   1.0000   1.0000   1.0000

          k = 0.4375-0.4375 0.5625 (   401 PWs)   bands (ev):

    -5.0522  -2.0750   4.0086   4.2453

     occupation numbers 
     1.0000   1.0000   1.0000   1.0000

          k = 0.3125-0.3125 0.4375 (   405 PWs)   bands (ev):

    -5.9266  -0.6228   4.2692   4.3366

     occupation numbers 
     1.0000   1.0000   1.0000   1.0000

          k = 0.1875-0.1875 0.3125 (   390 PWs)   bands (ev):

    -6.9136   1.8190   4.5978   4.8858

     occupation numbers 
     1.0000   1.0000   1.0000   1.0000

          k = 0.0625-0.0625 0.1875 (   393 PWs)   bands (ev):

    -7.5169   4.4150   5.1592   5.3589

     occupation numbers 
     1.0000   1.0000   1.0000   1.0000

          k =-0.0625 0.3125 0.0625 (   394 PWs)   bands (ev):

    -7.2163   3.4419   4.5390   4.6902

     occupation numbers 
     1.0000   1.0000   1.0000   1.0000

          k =-0.1875 0.4375-0.0625 (   393 PWs)   bands (ev):

    -6.6076   1.6613   3.4725   4.3810

     occupation numbers 
     1.0000   1.0000   1.0000   1.0000

          k =-0.3125 0.5625-0.1875 (   400 PWs)   bands (ev):

    -5.6389  -0.5122   2.9338   3.8826

     occupation numbers 
     1.0000   1.0000   1.0000   1.0000

          k = 0.5625-0.3125 0.6875 (   398 PWs)   bands (ev):

    -4.7467  -1.9384   2.6115   3.7574

     occupation numbers 
     1.0000   1.0000   1.0000   1.0000

          k = 0.4375-0.1875 0.5625 (   400 PWs)   bands (ev):

    -5.2808  -1.1354   2.5217   4.0826

     occupation numbers 
     1.0000   1.0000   1.0000   1.0000

          k = 0.3125-0.0625 0.4375 (   399 PWs)   bands (ev):

    -6.3264   0.9146   2.8610   4.6792

     occupation numbers 
     1.0000   1.0000   1.0000   1.0000

          k = 0.1875 0.0625 0.3125 (   392 PWs)   bands (ev):

    -7.0638   2.6314   4.1295   5.1104

     occupation numbers 
     1.0000   1.0000   1.0000   1.0000

          k =-0.0625 0.5625 0.0625 (   405 PWs)   bands (ev):

    -6.1375   1.0889   3.2573   3.3579

     occupation numbers 
     1.0000   1.0000   1.0000   1.0000

          k =-0.1875 0.6875-0.0625 (   405 PWs)   bands (ev):

    -5.2815  -0.3151   2.3604   2.9879

     occupation numbers 
     1.0000   1.0000   1.0000   1.0000

          k = 0.6875-0.1875 0.8125 (   404 PWs)   bands (ev):

    -4.2359  -1.7197   1.3779   2.9468

     occupation numbers 
     1.0000   1.0000   1.0000   1.0000

          k = 0.5625-0.0625 0.6875 (   397 PWs)   bands (ev):

    -4.3131  -1.6136   0.9377   3.3424

     occupation numbers 
     1.0000   1.0000   1.0000   1.0000

          k = 0.4375 0.0625 0.5625 (   404 PWs)   bands (ev):

    -5.3599  -0.5286   1.7064   4.0337

     occupation numbers 
     1.0000   1.0000   1.0000   1.0000

          k = 0.3125 0.1875 0.4375 (   399 PWs)   bands (ev):

    -6.1850   0.1540   3.6132   4.5516

     occupation numbers 
     1.0000   1.0000   1.0000   1.0000

          k =-0.0625 0.8125 0.0625 (   407 PWs)   bands (ev):

    -4.5365  -1.3002   2.4386   2.6635

     occupation numbers 
     1.0000   1.0000   1.0000   1.0000

          k = 0.8125-0.0625 0.9375 (   407 PWs)   bands (ev):

    -3.4858  -2.4426   1.8311   2.4081

     occupation numbers 
     1.0000   1.0000   1.0000   1.0000

          k = 0.6875 0.0625 0.8125 (   401 PWs)   bands (ev):

    -3.5766  -2.2637   0.9438   2.7726

     occupation numbers 
     1.0000   1.0000   1.0000   1.0000

          k = 0.5625 0.1875 0.6875 (   403 PWs)   bands (ev):

    -4.4517  -1.8555   1.6612   3.4876

     occupation numbers 
     1.0000   1.0000   1.0000   1.0000

          k = 0.4375 0.3125 0.5625 (   398 PWs)   bands (ev):

    -5.1559  -1.7210   3.4260   4.1509

     occupation numbers 
     1.0000   1.0000   1.0000   1.0000

          k =-0.0625-0.9375 0.0625 (   400 PWs)   bands (ev):

    -3.5575  -2.4588   2.2835   2.5269

     occupation numbers 
     1.0000   1.0000   1.0000   1.0000

          k =-0.1875-0.8125-0.0625 (   407 PWs)   bands (ev):

    -4.4329  -1.3784   2.0134   2.5882

     occupation numbers 
     1.0000   1.0000   1.0000   1.0000

          k =-0.3125-0.6875-0.1875 (   402 PWs)   bands (ev):

    -4.9772  -1.1210   2.1272   3.3156

     occupation numbers 
     1.0000   1.0000   1.0000   1.0000

          k =-0.0625-0.6875 0.0625 (   403 PWs)   bands (ev):

    -5.3921  -0.1193   2.7553   2.9383

     occupation numbers 
     1.0000   1.0000   1.0000   1.0000

          k =-0.1875-0.5625-0.0625 (   402 PWs)   bands (ev):

    -6.0099   0.6954   2.8591   3.6147

     occupation numbers 
     1.0000   1.0000   1.0000   1.0000

          k =-0.0625-0.4375 0.0625 (   398 PWs)   bands (ev):

    -6.7562   2.3071   3.9124   3.9356

     occupation numbers 
     1.0000   1.0000   1.0000   1.0000

          k =-0.1875 0.1875 0.1875 (   387 PWs)   bands (ev):

    -7.2197   2.7559   5.1357   5.1357

     occupation numbers 
     1.0000   1.0000   1.0000   1.0000

          k =-0.3125 0.3125 0.0625 (   390 PWs)   bands (ev):

    -6.7651   1.7546   3.5023   5.1655

     occupation numbers 
     1.0000   1.0000   1.0000   1.0000

          k =-0.4375 0.4375-0.0625 (   402 PWs)   bands (ev):

    -5.9110   0.1725   2.2477   4.5812

     occupation numbers 
     1.0000   1.0000   1.0000   1.0000

          k = 0.4375-0.4375 0.8125 (   404 PWs)   bands (ev):

    -4.8618  -1.5978   2.0847   3.9625

     occupation numbers 
     1.0000   1.0000   1.0000   1.0000

          k = 0.3125-0.3125 0.6875 (   401 PWs)   bands (ev):

    -4.8521  -1.6272   2.4404   3.6025

     occupation numbers 
     1.0000   1.0000   1.0000   1.0000

          k = 0.1875-0.1875 0.5625 (   399 PWs)   bands (ev):

    -5.8877   0.1672   3.1626   3.5707

     occupation numbers 
     1.0000   1.0000   1.0000   1.0000

          k =-0.1875 0.4375 0.1875 (   396 PWs)   bands (ev):

    -6.4628   0.9478   4.0545   4.1122

     occupation numbers 
     1.0000   1.0000   1.0000   1.0000

          k =-0.3125 0.5625 0.0625 (   405 PWs)   bands (ev):

    -5.7505   0.1109   2.2789   3.8978

     occupation numbers 
     1.0000   1.0000   1.0000   1.0000

          k = 0.5625-0.3125 0.9375 (   403 PWs)   bands (ev):

    -4.7108  -1.1643   1.3283   3.2337

     occupation numbers 
     1.0000   1.0000   1.0000   1.0000

          k = 0.4375-0.1875 0.8125 (   402 PWs)   bands (ev):

    -4.1470  -1.8844   1.3267   2.8724

     occupation numbers 
     1.0000   1.0000   1.0000   1.0000

          k = 0.3125-0.0625 0.6875 (   406 PWs)   bands (ev):

    -5.0494  -0.6932   1.8377   3.0874

     occupation numbers 
     1.0000   1.0000   1.0000   1.0000

          k =-0.1875 0.6875 0.1875 (   402 PWs)   bands (ev):

    -5.1825  -0.6272   2.2549   3.1754

     occupation numbers 
     1.0000   1.0000   1.0000   1.0000

          k = 0.6875-0.1875 1.0625 (   403 PWs)   bands (ev):

    -4.2475  -1.5361   1.5559   2.4371

     occupation numbers 
     1.0000   1.0000   1.0000   1.0000

          k = 0.5625-0.0625 0.9375 (   403 PWs)   bands (ev):

    -3.3206  -2.3915   1.1463   1.8644

     occupation numbers 
     1.0000   1.0000   1.0000   1.0000

          k = 0.4375 0.0625 0.8125 (   401 PWs)   bands (ev):

    -4.0118  -1.7728   1.1503   2.4348

     occupation numbers 
     1.0000   1.0000   1.0000   1.0000

          k =-0.1875-1.0625 0.1875 (   405 PWs)   bands (ev):

    -3.4928  -2.3955   1.2928   2.7687

     occupation numbers 
     1.0000   1.0000   1.0000   1.0000

          k =-0.3125-0.9375 0.0625 (   401 PWs)   bands (ev):

    -3.3889  -2.4139   1.4036   2.0996

     occupation numbers 
     1.0000   1.0000   1.0000   1.0000

          k =-0.1875-0.8125 0.1875 (   405 PWs)   bands (ev):

    -4.3543  -1.5096   1.6056   2.9017

     occupation numbers 
     1.0000   1.0000   1.0000   1.0000

          k =-0.3125 0.3125 0.3125 (   401 PWs)   bands (ev):

    -6.3267   0.0829   4.6373   4.6373

     occupation numbers 
     1.0000   1.0000   1.0000   1.0000

          k =-0.4375 0.4375 0.1875 (   400 PWs)   bands (ev):

    -5.7858  -0.5546   3.0837   4.5542

     occupation numbers 
     1.0000   1.0000   1.0000   1.0000

          k = 0.4375-0.4375 1.0625 (   403 PWs)   bands (ev):

    -4.8626  -1.1183   1.2288   3.8752

     occupation numbers 
     1.0000   1.0000   1.0000   1.0000

          k = 0.3125-0.3125 0.9375 (   400 PWs)   bands (ev):

    -3.9118  -1.9860   0.7814   3.2356

     occupation numbers 
     1.0000   1.0000   1.0000   1.0000

          k =-0.3125 0.5625 0.3125 (   401 PWs)   bands (ev):

    -5.4274  -1.1933   3.4847   3.9142

     occupation numbers 
     1.0000   1.0000   1.0000   1.0000

          k = 0.5625-0.3125 1.1875 (   403 PWs)   bands (ev):

    -4.7060  -1.5801   1.9211   3.4200

     occupation numbers 
     1.0000   1.0000   1.0000   1.0000

          k = 0.4375-0.1875 1.0625 (   398 PWs)   bands (ev):

    -3.7664  -2.0407   0.9030   2.5858

     occupation numbers 
     1.0000   1.0000   1.0000   1.0000

          k =-0.3125-1.1875 0.3125 (   400 PWs)   bands (ev):

    -4.2856  -1.8902   1.4323   3.3639

     occupation numbers 
     1.0000   1.0000   1.0000   1.0000

          k =-0.4375 0.4375 0.4375 (   401 PWs)   bands (ev):

    -5.3091  -1.7949   4.3840   4.3840

     occupation numbers 
     1.0000   1.0000   1.0000   1.0000

          k = 0.4375-0.4375 1.3125 (   399 PWs)   bands (ev):

    -4.8998  -1.9955   3.1136   4.0965

     occupation numbers 
     1.0000   1.0000   1.0000   1.0000

     highest occupied level (ev):     5.6110

!    total energy              =     -15.75148037 Ry
     Harris-Foulkes estimate   =     -15.75148037 Ry
     estimated scf accuracy    <          3.8E-11 Ry

     convergence has been achieved in   1 iterations

     Using ACE for calculation of exact exchange

!!   total energy              =     -15.75148037 Ry
     Harris-Foulkes estimate   =     -15.75148037 Ry
     est. exchange err (dexx)  =          4.1E-10 Ry
     - averaged Fock potential =       2.14214290 Ry
     + Fock energy (ACE)       =      -1.07107286 Ry

     EXX self-consistency reached

     Writing output data file Si.save/
 
     init_run     :      0.12s CPU      0.12s WALL (       1 calls)
     electrons    :      5.46s CPU      5.68s WALL (       8 calls)

     Called by init_run:
     wfcinit      :      0.09s CPU      0.09s WALL (       1 calls)
     wfcinit:atom :      0.00s CPU      0.00s WALL (      60 calls)
     wfcinit:wfcr :      0.08s CPU      0.08s WALL (      60 calls)
     potinit      :      0.00s CPU      0.00s WALL (       1 calls)
     hinit0       :      0.02s CPU      0.02s WALL (       1 calls)

     Called by electrons:
     c_bands      :      4.63s CPU      4.83s WALL (      36 calls)
     sum_band     :      0.71s CPU      0.73s WALL (      36 calls)
     v_of_rho     :      0.10s CPU      0.11s WALL (      36 calls)
     v_h          :      0.00s CPU      0.00s WALL (      36 calls)
     v_xc         :      0.10s CPU      0.10s WALL (      36 calls)
     mix_rho      :      0.01s CPU      0.01s WALL (      36 calls)

     Called by c_bands:
     init_us_2    :      0.16s CPU      0.14s WALL (    4380 calls)
     cegterg      :      4.42s CPU      4.64s WALL (    2160 calls)

     Called by sum_band:

     Called by *egterg:
     h_psi        :      3.98s CPU      4.14s WALL (    7520 calls)
     g_psi        :      0.02s CPU      0.03s WALL (    5300 calls)
     cdiaghg      :      0.24s CPU      0.28s WALL (    6920 calls)
     cegterg:over :      0.08s CPU      0.09s WALL (    5300 calls)
     cegterg:upda :      0.05s CPU      0.05s WALL (    5300 calls)
     cegterg:last :      0.01s CPU      0.02s WALL (    2480 calls)

     Called by h_psi:
     h_psi:pot    :      3.91s CPU      4.05s WALL (    7520 calls)
     h_psi:calbec :      0.08s CPU      0.08s WALL (    7520 calls)
     vloc_psi     :      3.75s CPU      3.90s WALL (    7520 calls)
     add_vuspsi   :      0.04s CPU      0.05s WALL (    7520 calls)

     General routines
     calbec       :      0.10s CPU      0.11s WALL (   15375 calls)
     fft          :      0.02s CPU      0.04s WALL (     352 calls)
     ffts         :      0.00s CPU      0.00s WALL (      36 calls)
     fftw         :      3.96s CPU      4.10s WALL (   62974 calls)
     fftc         :     95.99s CPU     97.62s WALL (  983040 calls)
     fftcw        :      0.42s CPU      0.41s WALL (    5760 calls)
 
     Parallel routines
     fft_scatt_xy :     11.73s CPU     11.91s WALL ( 1052162 calls)
     fft_scatt_yz :     20.69s CPU     21.11s WALL ( 1052162 calls)

     EXX routines
     exx_grid     :      0.10s CPU      0.11s WALL (       1 calls)
     exxinit      :      1.98s CPU      2.07s WALL (       8 calls)
     vexx         :    116.03s CPU    118.54s WALL (     480 calls)
     matcalc      :      0.03s CPU      0.05s WALL (    7855 calls)
     aceupdate    :      0.01s CPU      0.01s WALL (     480 calls)
     vexxace      :      0.06s CPU      0.08s WALL (    6475 calls)
     aceinit      :    116.05s CPU    118.56s WALL (     480 calls)
 
     PWSCF        :   2m 3.82s CPU   2m 6.66s WALL

 
   This run was terminated on:  21:46:56   3Sep2019            

=------------------------------------------------------------------------------=
   JOB DONE.
=------------------------------------------------------------------------------=
