
     Program PWSCF v.6.3 starts on 14Sep2019 at 16:27:41 

     This program is part of the open-source Quantum ESPRESSO suite
     for quantum simulation of materials; please cite
         "P. Giannozzi et al., J. Phys.:Condens. Matter 21 395502 (2009);
         "P. Giannozzi et al., J. Phys.:Condens. Matter 29 465901 (2017);
          URL http://www.quantum-espresso.org", 
     in publications or presentations arising from this work. More details at
     http://www.quantum-espresso.org/quote

     Parallel version (MPI), running on     1 processors

     MPI processes distributed on     1 nodes
     Waiting for input...
     Reading input from standard input

     Current dimensions of program PWSCF are:
     Max number of different atomic species (ntypx) = 10
     Max number of k-points (npk) =  40000
     Max angular momentum in pseudopotentials (lmaxx) =  3
               file C.pbe-rrkjus.UPF: wavefunction(s)  2S 2P renormalized
               file H.pbe-rrkjus.UPF: wavefunction(s)  1S renormalized

     Subspace diagonalization in iterative solution of the eigenvalue problem:
     a serial algorithm will be used


     G-vector sticks info
     --------------------
     sticks:   dense  smooth     PW     G-vecs:    dense   smooth      PW
     Sum         301     121     37                12531     3147     647



     bravais-lattice index     =            4
     lattice parameter (alat)  =       4.6540  a.u.
     unit-cell volume          =     261.8973 (a.u.)^3
     number of atoms/cell      =            4
     number of atomic types    =            2
     number of electrons       =        10.00
     number of Kohn-Sham states=            5
     kinetic-energy cutoff     =      20.0000  Ry
     charge density cutoff     =     200.0000  Ry
     convergence threshold     =      1.0E-08
     mixing beta               =       0.7000
     number of iterations used =            8  plain     mixing
     Exchange-correlation      =  SLA  PW   PBE  PBE ( 1  4  3  4 0 0)
     nstep                     =           50


     celldm(1)=   4.654000  celldm(2)=   0.000000  celldm(3)=   3.000000
     celldm(4)=   0.000000  celldm(5)=   0.000000  celldm(6)=   0.000000

     crystal axes: (cart. coord. in units of alat)
               a(1) = (   1.000000   0.000000   0.000000 )  
               a(2) = (  -0.500000   0.866025   0.000000 )  
               a(3) = (   0.000000   0.000000   3.000000 )  

     reciprocal axes: (cart. coord. in units 2 pi/alat)
               b(1) = (  1.000000  0.577350 -0.000000 )  
               b(2) = (  0.000000  1.154701  0.000000 )  
               b(3) = (  0.000000 -0.000000  0.333333 )  


     PseudoPot. # 1 for C  read from file:
     /home/matic/test.QE-2019/pseudo/C.pbe-rrkjus.UPF
     MD5 check sum: 00fb224312de0c5b6853bd333518df6f
     Pseudo is Ultrasoft, Zval =  4.0
     Generated by new atomic code, or converted to UPF format
     Using radial grid of  627 points,  4 beta functions with: 
                l(1) =   0
                l(2) =   0
                l(3) =   1
                l(4) =   1
     Q(r) pseudized with 0 coefficients 


     PseudoPot. # 2 for H  read from file:
     /home/matic/test.QE-2019/pseudo/H.pbe-rrkjus.UPF
     MD5 check sum: 7cc9d459525c9a0585f487a71c3c9563
     Pseudo is Ultrasoft, Zval =  1.0
     Generated by new atomic code, or converted to UPF format
     Using radial grid of 1061 points,  2 beta functions with: 
                l(1) =   0
                l(2) =   0
     Q(r) pseudized with 0 coefficients 


     atomic species   valence    mass     pseudopotential
        C              4.00    12.01070     C ( 1.00)
        H              1.00     1.00007     H ( 1.00)

     12 Sym. Ops., with inversion, found ( 6 have fractional translation)



   Cartesian axes

     site n.     atom                  positions (alat units)
         1           H   tau(   1) = (   0.0000000   0.0000000   0.4000000  )
         2           C   tau(   2) = (   0.0000000   0.0000000   0.0000000  )
         3           C   tau(   3) = (   0.0000000   0.5773503   0.0000000  )
         4           H   tau(   4) = (   0.0000000   0.5773503  -0.4000000  )

     number of k points=    12
                       cart. coord. in units 2pi/alat
        k(    1) = (   0.0000000   0.0000000   0.0000000), wk =   0.0246914
        k(    2) = (   0.0000000   0.1283001   0.0000000), wk =   0.1481481
        k(    3) = (   0.0000000   0.2566001   0.0000000), wk =   0.1481481
        k(    4) = (   0.0000000   0.3849002   0.0000000), wk =   0.1481481
        k(    5) = (   0.0000000   0.5132002   0.0000000), wk =   0.1481481
        k(    6) = (   0.1111111   0.1924501   0.0000000), wk =   0.1481481
        k(    7) = (   0.1111111   0.3207501   0.0000000), wk =   0.2962963
        k(    8) = (   0.1111111   0.4490502   0.0000000), wk =   0.2962963
        k(    9) = (   0.1111111   0.5773503   0.0000000), wk =   0.1481481
        k(   10) = (   0.2222222   0.3849002   0.0000000), wk =   0.1481481
        k(   11) = (   0.2222222   0.5132002   0.0000000), wk =   0.2962963
        k(   12) = (   0.3333333   0.5773503   0.0000000), wk =   0.0493827

     Dense  grid:    12531 G-vectors     FFT dimensions: (  24,  24,  64)

     Smooth grid:     3147 G-vectors     FFT dimensions: (  15,  15,  40)

     Estimated max dynamical RAM per process >      19.28 MB

     Initial potential from superposition of free atoms

     starting charge    9.80749, renormalised to   10.00000
     Starting wfcs are   10 randomized atomic wfcs

     total cpu time spent up to now is        0.3 secs

     Self-consistent Calculation

     iteration #  1     ecut=    20.00 Ry     beta= 0.70
     Davidson diagonalization with overlap
     ethr =  1.00E-02,  avg # of iterations =  2.2

     total cpu time spent up to now is        0.5 secs

     total energy              =     -24.60658137 Ry
     Harris-Foulkes estimate   =     -25.18083444 Ry
     estimated scf accuracy    <       0.88606188 Ry

     iteration #  2     ecut=    20.00 Ry     beta= 0.70
     Davidson diagonalization with overlap
     ethr =  8.86E-03,  avg # of iterations =  2.4

     total cpu time spent up to now is        0.6 secs

     total energy              =     -24.74946763 Ry
     Harris-Foulkes estimate   =     -24.81897604 Ry
     estimated scf accuracy    <       0.11585673 Ry

     iteration #  3     ecut=    20.00 Ry     beta= 0.70
     Davidson diagonalization with overlap
     ethr =  1.16E-03,  avg # of iterations =  2.3

     total cpu time spent up to now is        0.7 secs

     total energy              =     -24.77851207 Ry
     Harris-Foulkes estimate   =     -24.78376846 Ry
     estimated scf accuracy    <       0.00995532 Ry

     iteration #  4     ecut=    20.00 Ry     beta= 0.70
     Davidson diagonalization with overlap
     ethr =  9.96E-05,  avg # of iterations =  2.4

     total cpu time spent up to now is        0.9 secs

     total energy              =     -24.78061156 Ry
     Harris-Foulkes estimate   =     -24.78073842 Ry
     estimated scf accuracy    <       0.00026175 Ry

     iteration #  5     ecut=    20.00 Ry     beta= 0.70
     Davidson diagonalization with overlap
     ethr =  2.62E-06,  avg # of iterations =  2.8

     total cpu time spent up to now is        1.0 secs

     total energy              =     -24.78069584 Ry
     Harris-Foulkes estimate   =     -24.78069547 Ry
     estimated scf accuracy    <       0.00001332 Ry

     iteration #  6     ecut=    20.00 Ry     beta= 0.70
     Davidson diagonalization with overlap
     ethr =  1.33E-07,  avg # of iterations =  2.2

     total cpu time spent up to now is        1.1 secs

     total energy              =     -24.78069765 Ry
     Harris-Foulkes estimate   =     -24.78069741 Ry
     estimated scf accuracy    <       0.00000028 Ry

     iteration #  7     ecut=    20.00 Ry     beta= 0.70
     Davidson diagonalization with overlap
     ethr =  2.77E-09,  avg # of iterations =  2.6

     total cpu time spent up to now is        1.3 secs

     total energy              =     -24.78069777 Ry
     Harris-Foulkes estimate   =     -24.78069778 Ry
     estimated scf accuracy    <       0.00000003 Ry

     iteration #  8     ecut=    20.00 Ry     beta= 0.70
     Davidson diagonalization with overlap
     ethr =  3.13E-10,  avg # of iterations =  2.4

     total cpu time spent up to now is        1.4 secs

     End of self-consistent calculation

          k = 0.0000 0.0000 0.0000 (   397 PWs)   bands (ev):

   -19.8818 -10.9991  -1.9724  -1.9724   1.3620

          k = 0.0000 0.1283 0.0000 (   399 PWs)   bands (ev):

   -19.5865 -10.7362  -3.1851  -2.5524   1.5185

          k = 0.0000 0.2566 0.0000 (   394 PWs)   bands (ev):

   -18.7034 -10.0714  -5.6882  -3.7224   1.5726

          k = 0.0000 0.3849 0.0000 (   398 PWs)   bands (ev):

   -17.2720 -10.3300  -7.1012  -4.7603   0.4014

          k = 0.0000 0.5132 0.0000 (   396 PWs)   bands (ev):

   -15.4385 -12.5076  -6.2177  -5.3269  -1.2704

          k = 0.1111 0.1925 0.0000 (   409 PWs)   bands (ev):

   -18.9987 -10.2602  -4.7425  -3.7797   1.6647

          k = 0.1111 0.3208 0.0000 (   398 PWs)   bands (ev):

   -17.8380  -9.8198  -6.6371  -5.1763   1.0917

          k = 0.1111 0.4491 0.0000 (   389 PWs)   bands (ev):

   -16.1721 -11.2645  -6.8338  -5.7126  -0.5852

          k = 0.1111 0.5774 0.0000 (   386 PWs)   bands (ev):

   -14.6492 -13.0287  -6.8037  -5.2161  -1.7464

          k = 0.2222 0.3849 0.0000 (   395 PWs)   bands (ev):

   -16.4362 -10.4442  -7.3251  -6.1903  -0.2192

          k = 0.2222 0.5132 0.0000 (   394 PWs)   bands (ev):

   -14.6566 -12.1237  -8.4740  -4.8995  -1.8895

          k = 0.3333 0.5774 0.0000 (   381 PWs)   bands (ev):

   -13.1026 -13.1026  -9.5785  -3.3869  -3.3869

     highest occupied level (ev):     1.6647

!    total energy              =     -24.78069777 Ry
     Harris-Foulkes estimate   =     -24.78069778 Ry
     estimated scf accuracy    <          1.5E-09 Ry

     The total energy is the sum of the following terms:

     one-electron contribution =     -73.90395636 Ry
     hartree contribution      =      39.86849761 Ry
     xc contribution           =      -8.92396093 Ry
     ewald contribution        =      18.17872191 Ry

     convergence has been achieved in   8 iterations

     Forces acting on atoms (cartesian axes, Ry/au):

     atom    1 type  2   force =     0.00000000   -0.00000000    0.29667091
     atom    2 type  1   force =     0.00000000   -0.00000000    0.24382292
     atom    3 type  1   force =     0.00000000   -0.00000000   -0.24382292
     atom    4 type  2   force =     0.00000000    0.00000000   -0.29667091

     Total force =     0.543071     Total SCF correction =     0.000019

     BFGS Geometry Optimization

     number of scf cycles    =   1
     number of bfgs steps    =   0

     energy   new            =     -24.7806977747 Ry

     new trust radius        =       0.2966709139 bohr
     new conv_thr            =       0.0000000100 Ry


ATOMIC_POSITIONS (alat)
H        0.000000000  -0.000000000   0.463745362
C        0.000000000  -0.000000000   0.052389970
C        0.000000000   0.577350300  -0.052389970
H        0.000000000   0.577350300  -0.463745362



     Writing output data file Graphane.save/
     NEW-OLD atomic charge density approx. for the potential

     total cpu time spent up to now is        1.6 secs

     Self-consistent Calculation

     iteration #  1     ecut=    20.00 Ry     beta= 0.70
     Davidson diagonalization with overlap
     ethr =  1.00E-06,  avg # of iterations =  6.5

     total cpu time spent up to now is        1.8 secs

     total energy              =     -25.00114217 Ry
     Harris-Foulkes estimate   =     -25.03808455 Ry
     estimated scf accuracy    <       0.06345227 Ry

     iteration #  2     ecut=    20.00 Ry     beta= 0.70
     Davidson diagonalization with overlap
     ethr =  6.35E-04,  avg # of iterations =  2.3

     total cpu time spent up to now is        1.9 secs

     total energy              =     -25.01610638 Ry
     Harris-Foulkes estimate   =     -25.02515237 Ry
     estimated scf accuracy    <       0.01496076 Ry

     iteration #  3     ecut=    20.00 Ry     beta= 0.70
     Davidson diagonalization with overlap
     ethr =  1.50E-04,  avg # of iterations =  2.1

     total cpu time spent up to now is        2.0 secs

     total energy              =     -25.01949399 Ry
     Harris-Foulkes estimate   =     -25.01949222 Ry
     estimated scf accuracy    <       0.00025595 Ry

     iteration #  4     ecut=    20.00 Ry     beta= 0.70
     Davidson diagonalization with overlap
     ethr =  2.56E-06,  avg # of iterations =  1.6

     total cpu time spent up to now is        2.2 secs

     total energy              =     -25.01951864 Ry
     Harris-Foulkes estimate   =     -25.01951945 Ry
     estimated scf accuracy    <       0.00000317 Ry

     iteration #  5     ecut=    20.00 Ry     beta= 0.70
     Davidson diagonalization with overlap
     ethr =  3.17E-08,  avg # of iterations =  2.8

     total cpu time spent up to now is        2.3 secs

     total energy              =     -25.01952046 Ry
     Harris-Foulkes estimate   =     -25.01952044 Ry
     estimated scf accuracy    <       0.00000015 Ry

     iteration #  6     ecut=    20.00 Ry     beta= 0.70
     Davidson diagonalization with overlap
     ethr =  1.55E-09,  avg # of iterations =  2.2

     total cpu time spent up to now is        2.4 secs

     End of self-consistent calculation

          k = 0.0000 0.0000 0.0000 (   397 PWs)   bands (ev):

   -18.4291 -10.1164  -0.6827  -0.4595  -0.4595

          k = 0.0000 0.1283 0.0000 (   399 PWs)   bands (ev):

   -18.1281  -9.8381  -1.7577  -1.0492  -0.5697

          k = 0.0000 0.2566 0.0000 (   394 PWs)   bands (ev):

   -17.2301  -9.0557  -4.4838  -2.2245  -0.4496

          k = 0.0000 0.3849 0.0000 (   398 PWs)   bands (ev):

   -15.7703  -8.7145  -6.6237  -3.2620  -0.9076

          k = 0.0000 0.5132 0.0000 (   396 PWs)   bands (ev):

   -13.8839 -10.9158  -5.8572  -3.8276  -1.9247

          k = 0.1111 0.1925 0.0000 (   409 PWs)   bands (ev):

   -17.5300  -9.3053  -3.4365  -2.3308  -0.4107

          k = 0.1111 0.3208 0.0000 (   398 PWs)   bands (ev):

   -16.3480  -8.5053  -5.7806  -3.7549  -0.5547

          k = 0.1111 0.4491 0.0000 (   389 PWs)   bands (ev):

   -14.6444  -9.6034  -6.2162  -4.5453  -1.4393

          k = 0.1111 0.5774 0.0000 (   386 PWs)   bands (ev):

   -13.0548 -11.4742  -5.7083  -4.5518  -2.2579

          k = 0.2222 0.3849 0.0000 (   395 PWs)   bands (ev):

   -14.9166  -8.7416  -5.9056  -5.8890  -1.1954

          k = 0.2222 0.5132 0.0000 (   394 PWs)   bands (ev):

   -13.0822 -10.4807  -7.0536  -4.7512  -2.3288

          k = 0.3333 0.5774 0.0000 (   381 PWs)   bands (ev):

   -11.4672 -11.4671  -8.2078  -3.4931  -3.4931

     highest occupied level (ev):    -0.4107

!    total energy              =     -25.01952050 Ry
     Harris-Foulkes estimate   =     -25.01952049 Ry
     estimated scf accuracy    <          2.0E-09 Ry

     The total energy is the sum of the following terms:

     one-electron contribution =     -69.21460759 Ry
     hartree contribution      =      37.75248057 Ry
     xc contribution           =      -8.84547570 Ry
     ewald contribution        =      15.28808222 Ry

     convergence has been achieved in   6 iterations

     Forces acting on atoms (cartesian axes, Ry/au):

     atom    1 type  2   force =     0.00000000    0.00000000    0.18201798
     atom    2 type  1   force =     0.00000000    0.00000000    0.12301976
     atom    3 type  1   force =     0.00000000   -0.00000000   -0.12301976
     atom    4 type  2   force =    -0.00000000    0.00000000   -0.18201798

     Total force =     0.310691     Total SCF correction =     0.000007

     number of scf cycles    =   2
     number of bfgs steps    =   1

     energy   old            =     -24.7806977747 Ry
     energy   new            =     -25.0195205036 Ry

     CASE: energy  _new < energy  _old

     new trust radius        =       0.3263380053 bohr
     new conv_thr            =       0.0000000100 Ry


ATOMIC_POSITIONS (alat)
H        0.000000000  -0.000000000   0.533865260
C        0.000000000   0.000000000   0.099891245
C        0.000000000   0.577350300  -0.099891245
H        0.000000000   0.577350300  -0.533865260



     Writing output data file Graphane.save/
     NEW-OLD atomic charge density approx. for the potential

     total cpu time spent up to now is        2.6 secs

     Self-consistent Calculation

     iteration #  1     ecut=    20.00 Ry     beta= 0.70
     Davidson diagonalization with overlap
     ethr =  1.00E-06,  avg # of iterations =  6.0

     total cpu time spent up to now is        2.8 secs

     total energy              =     -25.07512895 Ry
     Harris-Foulkes estimate   =     -25.13932423 Ry
     estimated scf accuracy    <       0.09921279 Ry

     iteration #  2     ecut=    20.00 Ry     beta= 0.70
     Davidson diagonalization with overlap
     ethr =  9.92E-04,  avg # of iterations =  2.0

     total cpu time spent up to now is        2.9 secs

     total energy              =     -25.10240569 Ry
     Harris-Foulkes estimate   =     -25.12110615 Ry
     estimated scf accuracy    <       0.03173110 Ry

     iteration #  3     ecut=    20.00 Ry     beta= 0.70
     Davidson diagonalization with overlap
     ethr =  3.17E-04,  avg # of iterations =  2.0

     total cpu time spent up to now is        3.0 secs

     total energy              =     -25.10915012 Ry
     Harris-Foulkes estimate   =     -25.10913781 Ry
     estimated scf accuracy    <       0.00021814 Ry

     iteration #  4     ecut=    20.00 Ry     beta= 0.70
     Davidson diagonalization with overlap
     ethr =  2.18E-06,  avg # of iterations =  2.0

     total cpu time spent up to now is        3.2 secs

     total energy              =     -25.10917795 Ry
     Harris-Foulkes estimate   =     -25.10918320 Ry
     estimated scf accuracy    <       0.00000977 Ry

     iteration #  5     ecut=    20.00 Ry     beta= 0.70
     Davidson diagonalization with overlap
     ethr =  9.77E-08,  avg # of iterations =  2.0

     total cpu time spent up to now is        3.3 secs

     total energy              =     -25.10918096 Ry
     Harris-Foulkes estimate   =     -25.10918121 Ry
     estimated scf accuracy    <       0.00000054 Ry

     iteration #  6     ecut=    20.00 Ry     beta= 0.70
     Davidson diagonalization with overlap
     ethr =  5.45E-09,  avg # of iterations =  2.3

     total cpu time spent up to now is        3.4 secs

     End of self-consistent calculation

          k = 0.0000 0.0000 0.0000 (   397 PWs)   bands (ev):

   -17.1163  -9.4065  -2.4124   1.3984   1.3984

          k = 0.0000 0.1283 0.0000 (   399 PWs)   bands (ev):

   -16.8075  -9.1203  -2.2756   0.0107   0.7979

          k = 0.0000 0.2566 0.0000 (   394 PWs)   bands (ev):

   -15.8891  -8.3157  -2.9571  -1.8872  -0.3775

          k = 0.0000 0.3849 0.0000 (   398 PWs)   bands (ev):

   -14.3929  -7.4941  -5.7088  -1.8831  -1.4067

          k = 0.0000 0.5132 0.0000 (   396 PWs)   bands (ev):

   -12.4615  -9.3957  -5.3815  -2.4079  -1.9681

          k = 0.1111 0.1925 0.0000 (   409 PWs)   bands (ev):

   -16.1956  -8.5779  -2.0879  -1.8013  -0.4103

          k = 0.1111 0.3208 0.0000 (   398 PWs)   bands (ev):

   -14.9857  -7.6410  -4.4285  -2.2309  -1.5073

          k = 0.1111 0.4491 0.0000 (   389 PWs)   bands (ev):

   -13.2398  -8.0813  -5.6361  -2.9107  -2.0037

          k = 0.1111 0.5774 0.0000 (   386 PWs)   bands (ev):

   -11.6109  -9.9663  -5.0307  -3.0377  -2.6037

          k = 0.2222 0.3849 0.0000 (   395 PWs)   bands (ev):

   -13.5176  -7.3355  -5.2284  -4.2493  -1.8709

          k = 0.2222 0.5132 0.0000 (   394 PWs)   bands (ev):

   -11.6341  -8.9523  -5.4769  -4.3339  -2.5698

          k = 0.3333 0.5774 0.0000 (   381 PWs)   bands (ev):

    -9.9709  -9.9709  -6.5861  -3.4040  -3.4040

     highest occupied level (ev):     1.3984

!    total energy              =     -25.10918110 Ry
     Harris-Foulkes estimate   =     -25.10918109 Ry
     estimated scf accuracy    <          6.3E-09 Ry

     The total energy is the sum of the following terms:

     one-electron contribution =     -62.04517812 Ry
     hartree contribution      =      34.35790723 Ry
     xc contribution           =      -8.64239528 Ry
     ewald contribution        =      11.22048508 Ry

     convergence has been achieved in   6 iterations

     Forces acting on atoms (cartesian axes, Ry/au):

     atom    1 type  2   force =     0.00000000    0.00000000    0.05432741
     atom    2 type  1   force =     0.00000000    0.00000000   -0.07027844
     atom    3 type  1   force =     0.00000000   -0.00000000    0.07027844
     atom    4 type  2   force =     0.00000000    0.00000000   -0.05432741

     Total force =     0.125623     Total SCF correction =     0.000063

     number of scf cycles    =   3
     number of bfgs steps    =   2

     energy   old            =     -25.0195205036 Ry
     energy   new            =     -25.1091810968 Ry

     CASE: energy  _new < energy  _old

     new trust radius        =       0.0896426790 bohr
     new conv_thr            =       0.0000000070 Ry


ATOMIC_POSITIONS (alat)
H        0.000000000   0.000000000   0.553126686
C        0.000000000   0.000000000   0.089604625
C        0.000000000   0.577350300  -0.089604625
H        0.000000000   0.577350300  -0.553126686



     Writing output data file Graphane.save/
     NEW-OLD atomic charge density approx. for the potential

     total cpu time spent up to now is        3.5 secs

     Self-consistent Calculation

     iteration #  1     ecut=    20.00 Ry     beta= 0.70
     Davidson diagonalization with overlap
     ethr =  1.00E-06,  avg # of iterations =  5.2

     total cpu time spent up to now is        3.7 secs

     total energy              =     -25.10792217 Ry
     Harris-Foulkes estimate   =     -25.11667155 Ry
     estimated scf accuracy    <       0.01380501 Ry

     iteration #  2     ecut=    20.00 Ry     beta= 0.70
     Davidson diagonalization with overlap
     ethr =  1.38E-04,  avg # of iterations =  2.0

     total cpu time spent up to now is        3.8 secs

     total energy              =     -25.11105603 Ry
     Harris-Foulkes estimate   =     -25.11384421 Ry
     estimated scf accuracy    <       0.00477151 Ry

     iteration #  3     ecut=    20.00 Ry     beta= 0.70
     Davidson diagonalization with overlap
     ethr =  4.77E-05,  avg # of iterations =  2.0

     total cpu time spent up to now is        4.0 secs

     total energy              =     -25.11218436 Ry
     Harris-Foulkes estimate   =     -25.11220107 Ry
     estimated scf accuracy    <       0.00006233 Ry

     iteration #  4     ecut=    20.00 Ry     beta= 0.70
     Davidson diagonalization with overlap
     ethr =  6.23E-07,  avg # of iterations =  2.0

     total cpu time spent up to now is        4.1 secs

     total energy              =     -25.11219580 Ry
     Harris-Foulkes estimate   =     -25.11219614 Ry
     estimated scf accuracy    <       0.00000159 Ry

     iteration #  5     ecut=    20.00 Ry     beta= 0.70
     Davidson diagonalization with overlap
     ethr =  1.59E-08,  avg # of iterations =  2.2

     total cpu time spent up to now is        4.3 secs

     total energy              =     -25.11219617 Ry
     Harris-Foulkes estimate   =     -25.11219628 Ry
     estimated scf accuracy    <       0.00000021 Ry

     iteration #  6     ecut=    20.00 Ry     beta= 0.70
     Davidson diagonalization with overlap
     ethr =  2.11E-09,  avg # of iterations =  2.0

     total cpu time spent up to now is        4.4 secs

     End of self-consistent calculation

          k = 0.0000 0.0000 0.0000 (   397 PWs)   bands (ev):

   -17.3177  -9.1266  -2.2156   0.8927   0.8927

          k = 0.0000 0.1283 0.0000 (   399 PWs)   bands (ev):

   -17.0108  -8.8277  -2.0518  -0.4612   0.2942

          k = 0.0000 0.2566 0.0000 (   394 PWs)   bands (ev):

   -16.0976  -7.9861  -3.3530  -1.6150  -0.8818

          k = 0.0000 0.3849 0.0000 (   398 PWs)   bands (ev):

   -14.6066  -7.2708  -5.9328  -1.9133  -1.4872

          k = 0.0000 0.5132 0.0000 (   396 PWs)   bands (ev):

   -12.6683  -9.6354  -5.0625  -2.4756  -1.9998

          k = 0.1111 0.1925 0.0000 (   409 PWs)   bands (ev):

   -16.4022  -8.2613  -2.2450  -1.8324  -0.8777

          k = 0.1111 0.3208 0.0000 (   398 PWs)   bands (ev):

   -15.1980  -7.2785  -4.8320  -2.5021  -1.3498

          k = 0.1111 0.4491 0.0000 (   389 PWs)   bands (ev):

   -13.4545  -8.2215  -5.4488  -3.3212  -1.6460

          k = 0.1111 0.5774 0.0000 (   386 PWs)   bands (ev):

   -11.7985 -10.2337  -4.7104  -3.4806  -2.2076

          k = 0.2222 0.3849 0.0000 (   395 PWs)   bands (ev):

   -13.7336  -7.2466  -5.2970  -4.6473  -1.4913

          k = 0.2222 0.5132 0.0000 (   394 PWs)   bands (ev):

   -11.8426  -9.1503  -5.7879  -4.1478  -2.1740

          k = 0.3333 0.5774 0.0000 (   381 PWs)   bands (ev):

   -10.1603 -10.1603  -7.0238  -3.0451  -3.0451

     highest occupied level (ev):     0.8927

!    total energy              =     -25.11219621 Ry
     Harris-Foulkes estimate   =     -25.11219621 Ry
     estimated scf accuracy    <          1.2E-09 Ry

     The total energy is the sum of the following terms:

     one-electron contribution =     -61.17411469 Ry
     hartree contribution      =      33.85680916 Ry
     xc contribution           =      -8.57593757 Ry
     ewald contribution        =      10.78104689 Ry

     convergence has been achieved in   6 iterations

     Forces acting on atoms (cartesian axes, Ry/au):

     atom    1 type  2   force =     0.00000000    0.00000000   -0.02057335
     atom    2 type  1   force =     0.00000000   -0.00000000    0.05242263
     atom    3 type  1   force =     0.00000000   -0.00000000   -0.05242263
     atom    4 type  2   force =     0.00000000   -0.00000000    0.02057335

     Total force =     0.079642     Total SCF correction =     0.000025

     number of scf cycles    =   4
     number of bfgs steps    =   3

     energy   old            =     -25.1091810968 Ry
     energy   new            =     -25.1121962088 Ry

     CASE: energy  _new < energy  _old

     new trust radius        =       0.0264886886 bohr
     new conv_thr            =       0.0000000030 Ry


ATOMIC_POSITIONS (alat)
H        0.000000000   0.000000000   0.549960379
C        0.000000000   0.000000000   0.095296221
C        0.000000000   0.577350300  -0.095296221
H        0.000000000   0.577350300  -0.549960379



     Writing output data file Graphane.save/
     NEW-OLD atomic charge density approx. for the potential

     total cpu time spent up to now is        4.5 secs

     Self-consistent Calculation

     iteration #  1     ecut=    20.00 Ry     beta= 0.70
     Davidson diagonalization with overlap
     ethr =  1.00E-06,  avg # of iterations =  3.8

     total cpu time spent up to now is        4.7 secs

     total energy              =     -25.11392338 Ry
     Harris-Foulkes estimate   =     -25.11431272 Ry
     estimated scf accuracy    <       0.00066500 Ry

     iteration #  2     ecut=    20.00 Ry     beta= 0.70
     Davidson diagonalization with overlap
     ethr =  6.65E-06,  avg # of iterations =  2.0

     total cpu time spent up to now is        4.8 secs

     total energy              =     -25.11404631 Ry
     Harris-Foulkes estimate   =     -25.11414216 Ry
     estimated scf accuracy    <       0.00015756 Ry

     iteration #  3     ecut=    20.00 Ry     beta= 0.70
     Davidson diagonalization with overlap
     ethr =  1.58E-06,  avg # of iterations =  2.0

     total cpu time spent up to now is        5.0 secs

     total energy              =     -25.11408746 Ry
     Harris-Foulkes estimate   =     -25.11408979 Ry
     estimated scf accuracy    <       0.00000600 Ry

     iteration #  4     ecut=    20.00 Ry     beta= 0.70
     Davidson diagonalization with overlap
     ethr =  6.00E-08,  avg # of iterations =  2.0

     total cpu time spent up to now is        5.1 secs

     total energy              =     -25.11408863 Ry
     Harris-Foulkes estimate   =     -25.11408863 Ry
     estimated scf accuracy    <       0.00000007 Ry

     iteration #  5     ecut=    20.00 Ry     beta= 0.70
     Davidson diagonalization with overlap
     ethr =  6.81E-10,  avg # of iterations =  2.4

     total cpu time spent up to now is        5.2 secs

     total energy              =     -25.11408866 Ry
     Harris-Foulkes estimate   =     -25.11408866 Ry
     estimated scf accuracy    <          6.6E-09 Ry

     iteration #  6     ecut=    20.00 Ry     beta= 0.70
     Davidson diagonalization with overlap
     ethr =  6.57E-11,  avg # of iterations =  2.0

     total cpu time spent up to now is        5.4 secs

     End of self-consistent calculation

          k = 0.0000 0.0000 0.0000 (   397 PWs)   bands (ev):

   -17.1850  -9.1845  -2.3414   1.1587   1.1587

          k = 0.0000 0.1283 0.0000 (   399 PWs)   bands (ev):

   -16.8771  -8.8896  -2.1843  -0.2124   0.5591

          k = 0.0000 0.2566 0.0000 (   394 PWs)   bands (ev):

   -15.9609  -8.0602  -3.1367  -1.7576  -0.6166

          k = 0.0000 0.3849 0.0000 (   398 PWs)   bands (ev):

   -14.4660  -7.2730  -5.8190  -1.6543  -1.6468

          k = 0.0000 0.5132 0.0000 (   396 PWs)   bands (ev):

   -12.5272  -9.4747  -5.1450  -2.2086  -2.1521

          k = 0.1111 0.1925 0.0000 (   409 PWs)   bands (ev):

   -16.2665  -8.3312  -2.0106  -1.9603  -0.6381

          k = 0.1111 0.3208 0.0000 (   398 PWs)   bands (ev):

   -15.0588  -7.3602  -4.6215  -2.3077  -1.4555

          k = 0.1111 0.4491 0.0000 (   389 PWs)   bands (ev):

   -13.3118  -8.0873  -5.4902  -3.0888  -1.7920

          k = 0.1111 0.5774 0.0000 (   386 PWs)   bands (ev):

   -11.6627 -10.0652  -4.7834  -3.2514  -2.3503

          k = 0.2222 0.3849 0.0000 (   395 PWs)   bands (ev):

   -13.5908  -7.1896  -5.2528  -4.4243  -1.6443

          k = 0.2222 0.5132 0.0000 (   394 PWs)   bands (ev):

   -11.6992  -9.0026  -5.5911  -4.1983  -2.3129

          k = 0.3333 0.5774 0.0000 (   381 PWs)   bands (ev):

   -10.0196 -10.0196  -6.7928  -3.1569  -3.1569

     highest occupied level (ev):     1.1587

!    total energy              =     -25.11408866 Ry
     Harris-Foulkes estimate   =     -25.11408866 Ry
     estimated scf accuracy    <          9.5E-11 Ry

     The total energy is the sum of the following terms:

     one-electron contribution =     -61.11197223 Ry
     hartree contribution      =      33.85847462 Ry
     xc contribution           =      -8.58720680 Ry
     ewald contribution        =      10.72661574 Ry

     convergence has been achieved in   6 iterations

     Forces acting on atoms (cartesian axes, Ry/au):

     atom    1 type  2   force =     0.00000000   -0.00000000   -0.00353208
     atom    2 type  1   force =     0.00000000   -0.00000000    0.00506750
     atom    3 type  1   force =     0.00000000    0.00000000   -0.00506750
     atom    4 type  2   force =    -0.00000000   -0.00000000    0.00353208

     Total force =     0.008736     Total SCF correction =     0.000004

     number of scf cycles    =   5
     number of bfgs steps    =   4

     energy   old            =     -25.1121962088 Ry
     energy   new            =     -25.1140886577 Ry

     CASE: energy  _new < energy  _old

     new trust radius        =       0.0052275155 bohr
     new conv_thr            =       0.0000000005 Ry


ATOMIC_POSITIONS (alat)
H        0.000000000   0.000000000   0.548837148
C        0.000000000   0.000000000   0.095737240
C        0.000000000   0.577350300  -0.095737240
H        0.000000000   0.577350300  -0.548837148



     Writing output data file Graphane.save/
     NEW-OLD atomic charge density approx. for the potential

     total cpu time spent up to now is        5.5 secs

     Self-consistent Calculation

     iteration #  1     ecut=    20.00 Ry     beta= 0.70
     Davidson diagonalization with overlap
     ethr =  1.00E-06,  avg # of iterations =  2.7

     total cpu time spent up to now is        5.6 secs

     total energy              =     -25.11410481 Ry
     Harris-Foulkes estimate   =     -25.11412832 Ry
     estimated scf accuracy    <       0.00003763 Ry

     iteration #  2     ecut=    20.00 Ry     beta= 0.70
     Davidson diagonalization with overlap
     ethr =  3.76E-07,  avg # of iterations =  2.0

     total cpu time spent up to now is        5.8 secs

     total energy              =     -25.11411297 Ry
     Harris-Foulkes estimate   =     -25.11411882 Ry
     estimated scf accuracy    <       0.00000962 Ry

     iteration #  3     ecut=    20.00 Ry     beta= 0.70
     Davidson diagonalization with overlap
     ethr =  9.62E-08,  avg # of iterations =  2.0

     total cpu time spent up to now is        5.9 secs

     total energy              =     -25.11411538 Ry
     Harris-Foulkes estimate   =     -25.11411546 Ry
     estimated scf accuracy    <       0.00000022 Ry

     iteration #  4     ecut=    20.00 Ry     beta= 0.70
     Davidson diagonalization with overlap
     ethr =  2.22E-09,  avg # of iterations =  2.0

     total cpu time spent up to now is        6.0 secs

     total energy              =     -25.11411542 Ry
     Harris-Foulkes estimate   =     -25.11411542 Ry
     estimated scf accuracy    <          2.6E-09 Ry

     iteration #  5     ecut=    20.00 Ry     beta= 0.70
     Davidson diagonalization with overlap
     ethr =  2.60E-11,  avg # of iterations =  2.4

     total cpu time spent up to now is        6.1 secs

     End of self-consistent calculation

          k = 0.0000 0.0000 0.0000 (   397 PWs)   bands (ev):

   -17.1769  -9.2000  -2.3487   1.1812   1.1812

          k = 0.0000 0.1283 0.0000 (   399 PWs)   bands (ev):

   -16.8689  -8.9057  -2.1930  -0.1915   0.5815

          k = 0.0000 0.2566 0.0000 (   394 PWs)   bands (ev):

   -15.9525  -8.0782  -3.1191  -1.7694  -0.5942

          k = 0.0000 0.3849 0.0000 (   398 PWs)   bands (ev):

   -14.4574  -7.2862  -5.8096  -1.6730  -1.6244

          k = 0.0000 0.5132 0.0000 (   396 PWs)   bands (ev):

   -12.5189  -9.4648  -5.1625  -2.1861  -2.1723

          k = 0.1111 0.1925 0.0000 (   409 PWs)   bands (ev):

   -16.2582  -8.3485  -1.9910  -1.9714  -0.6170

          k = 0.1111 0.3208 0.0000 (   398 PWs)   bands (ev):

   -15.0502  -7.3800  -4.6035  -2.2953  -1.4634

          k = 0.1111 0.4491 0.0000 (   389 PWs)   bands (ev):

   -13.3032  -8.0821  -5.5015  -3.0704  -1.8100

          k = 0.1111 0.5774 0.0000 (   386 PWs)   bands (ev):

   -11.6554 -10.0539  -4.8011  -3.2318  -2.3702

          k = 0.2222 0.3849 0.0000 (   395 PWs)   bands (ev):

   -13.5821  -7.1958  -5.2513  -4.4069  -1.6629

          k = 0.2222 0.5132 0.0000 (   394 PWs)   bands (ev):

   -11.6909  -8.9947  -5.5775  -4.2096  -2.3330

          k = 0.3333 0.5774 0.0000 (   381 PWs)   bands (ev):

   -10.0122 -10.0122  -6.7735  -3.1759  -3.1759

     highest occupied level (ev):     1.1812

!    total energy              =     -25.11411542 Ry
     Harris-Foulkes estimate   =     -25.11411542 Ry
     estimated scf accuracy    <          2.6E-10 Ry

     The total energy is the sum of the following terms:

     one-electron contribution =     -61.17012502 Ry
     hartree contribution      =      33.89056438 Ry
     xc contribution           =      -8.59094019 Ry
     ewald contribution        =      10.75638541 Ry

     convergence has been achieved in   5 iterations

     Forces acting on atoms (cartesian axes, Ry/au):

     atom    1 type  2   force =     0.00000000    0.00000000    0.00017365
     atom    2 type  1   force =     0.00000000    0.00000000   -0.00062769
     atom    3 type  1   force =     0.00000000   -0.00000000    0.00062769
     atom    4 type  2   force =     0.00000000   -0.00000000   -0.00017365

     Total force =     0.000921     Total SCF correction =     0.000019

     bfgs converged in   6 scf cycles and   5 bfgs steps
     (criteria: energy <  1.0E-04 Ry, force <  1.0E-03 Ry/Bohr)

     End of BFGS Geometry Optimization

     Final energy   =     -25.1141154244 Ry
Begin final coordinates

ATOMIC_POSITIONS (alat)
H        0.000000000   0.000000000   0.548837148
C        0.000000000   0.000000000   0.095737240
C        0.000000000   0.577350300  -0.095737240
H        0.000000000   0.577350300  -0.548837148
End final coordinates



     Writing output data file Graphane.save/

     init_run     :      0.29s CPU      0.27s WALL (       1 calls)
     electrons    :      9.96s CPU      5.21s WALL (       6 calls)
     update_pot   :      0.34s CPU      0.27s WALL (       5 calls)
     forces       :      0.53s CPU      0.28s WALL (       6 calls)

     Called by init_run:
     wfcinit      :      0.07s CPU      0.04s WALL (       1 calls)
     potinit      :      0.04s CPU      0.04s WALL (       1 calls)
     hinit0       :      0.18s CPU      0.18s WALL (       1 calls)

     Called by electrons:
     c_bands      :      4.22s CPU      2.30s WALL (      37 calls)
     sum_band     :      1.99s CPU      0.97s WALL (      37 calls)
     v_of_rho     :      2.84s CPU      1.57s WALL (      43 calls)
     newd         :      0.87s CPU      0.44s WALL (      43 calls)
     mix_rho      :      0.15s CPU      0.08s WALL (      37 calls)

     Called by c_bands:
     init_us_2    :      0.35s CPU      0.19s WALL (     972 calls)
     cegterg      :      3.73s CPU      2.04s WALL (     444 calls)

     Called by sum_band:
     sum_band:bec :      0.01s CPU      0.00s WALL (     444 calls)
     addusdens    :      1.02s CPU      0.46s WALL (      37 calls)

     Called by *egterg:
     h_psi        :      2.75s CPU      1.51s WALL (    1582 calls)
     s_psi        :      0.12s CPU      0.07s WALL (    1582 calls)
     g_psi        :      0.09s CPU      0.05s WALL (    1126 calls)
     cdiaghg      :      0.34s CPU      0.18s WALL (    1510 calls)

     Called by h_psi:
     h_psi:pot    :      2.73s CPU      1.50s WALL (    1582 calls)
     h_psi:calbec :      0.16s CPU      0.09s WALL (    1582 calls)
     vloc_psi     :      2.31s CPU      1.25s WALL (    1582 calls)
     add_vuspsi   :      0.24s CPU      0.16s WALL (    1582 calls)

     General routines
     calbec       :      0.23s CPU      0.13s WALL (    2314 calls)
     fft          :      0.83s CPU      0.48s WALL (     570 calls)
     ffts         :      0.03s CPU      0.02s WALL (      80 calls)
     fftw         :      2.05s CPU      1.10s WALL (   15880 calls)
     interpolate  :      0.10s CPU      0.06s WALL (      43 calls)

     Parallel routines

     PWSCF        :    11.33s CPU         6.21s WALL


   This run was terminated on:  16:27:47  14Sep2019            

=------------------------------------------------------------------------------=
   JOB DONE.
=------------------------------------------------------------------------------=
