
     Program PWSCF v.6.3 starts on 14Sep2019 at 16:30:10 

     This program is part of the open-source Quantum ESPRESSO suite
     for quantum simulation of materials; please cite
         "P. Giannozzi et al., J. Phys.:Condens. Matter 21 395502 (2009);
         "P. Giannozzi et al., J. Phys.:Condens. Matter 29 465901 (2017);
          URL http://www.quantum-espresso.org", 
     in publications or presentations arising from this work. More details at
     http://www.quantum-espresso.org/quote

     Parallel version (MPI), running on     1 processors

     MPI processes distributed on     1 nodes
     Waiting for input...
     Reading input from standard input

     Current dimensions of program PWSCF are:
     Max number of different atomic species (ntypx) = 10
     Max number of k-points (npk) =  40000
     Max angular momentum in pseudopotentials (lmaxx) =  3
               file C.pbe-rrkjus.UPF: wavefunction(s)  2S 2P renormalized
               file O.pbe-rrkjus.UPF: wavefunction(s)  2S renormalized

     gamma-point specific algorithms are used

     Subspace diagonalization in iterative solution of the eigenvalue problem:
     a serial algorithm will be used


     G-vector sticks info
     --------------------
     sticks:   dense  smooth     PW     G-vecs:    dense   smooth      PW
     Sum        2689    1069    265               112707    28527    3547



     bravais-lattice index     =            4
     lattice parameter (alat)  =      13.9620  a.u.
     unit-cell volume          =    2357.0757 (a.u.)^3
     number of atoms/cell      =           19
     number of atomic types    =            2
     number of electrons       =        78.00
     number of Kohn-Sham states=           47
     kinetic-energy cutoff     =      20.0000  Ry
     charge density cutoff     =     200.0000  Ry
     convergence threshold     =      1.0E-08
     mixing beta               =       0.7000
     number of iterations used =            8  plain     mixing
     Exchange-correlation      =  SLA  PW   PBE  PBE ( 1  4  3  4 0 0)
     nstep                     =           50


     celldm(1)=  13.962000  celldm(2)=   0.000000  celldm(3)=   1.000000
     celldm(4)=   0.000000  celldm(5)=   0.000000  celldm(6)=   0.000000

     crystal axes: (cart. coord. in units of alat)
               a(1) = (   1.000000   0.000000   0.000000 )  
               a(2) = (  -0.500000   0.866025   0.000000 )  
               a(3) = (   0.000000   0.000000   1.000000 )  

     reciprocal axes: (cart. coord. in units 2 pi/alat)
               b(1) = (  1.000000  0.577350 -0.000000 )  
               b(2) = (  0.000000  1.154701  0.000000 )  
               b(3) = (  0.000000 -0.000000  1.000000 )  


     PseudoPot. # 1 for C  read from file:
     /home/matic/test.QE-2019/pseudo/C.pbe-rrkjus.UPF
     MD5 check sum: 00fb224312de0c5b6853bd333518df6f
     Pseudo is Ultrasoft, Zval =  4.0
     Generated by new atomic code, or converted to UPF format
     Using radial grid of  627 points,  4 beta functions with: 
                l(1) =   0
                l(2) =   0
                l(3) =   1
                l(4) =   1
     Q(r) pseudized with 0 coefficients 


     PseudoPot. # 2 for O  read from file:
     /home/matic/test.QE-2019/pseudo/O.pbe-rrkjus.UPF
     MD5 check sum: 390ba29e75625707450f3bd3f0eb6be9
     Pseudo is Ultrasoft, Zval =  6.0
     Generated by new atomic code, or converted to UPF format
     Using radial grid of 1269 points,  4 beta functions with: 
                l(1) =   0
                l(2) =   0
                l(3) =   1
                l(4) =   1
     Q(r) pseudized with 0 coefficients 


     atomic species   valence    mass     pseudopotential
        C              4.00    12.01070     C ( 1.00)
        O              6.00    16.00000     O ( 1.00)

     No symmetry found



   Cartesian axes

     site n.     atom                  positions (alat units)
         1           C   tau(   1) = (   0.0000000   0.0000000   0.0000000  )
         2           C   tau(   2) = (  -0.1666666   0.2886750   0.0000000  )
         3           C   tau(   3) = (  -0.3333332   0.5773500   0.0000000  )
         4           C   tau(   4) = (   0.3333332   0.0000000   0.0000000  )
         5           C   tau(   5) = (   0.1666666   0.2886750   0.0000000  )
         6           C   tau(   6) = (   0.0000000   0.5773500   0.0000000  )
         7           C   tau(   7) = (   0.6666664   0.0000000   0.0000000  )
         8           C   tau(   8) = (   0.4999998   0.2886750   0.0000000  )
         9           C   tau(   9) = (   0.3333332   0.5773500   0.0000000  )
        10           C   tau(  10) = (   0.0000000   0.1924500   0.0000000  )
        11           C   tau(  11) = (  -0.1666666   0.4811250   0.0000000  )
        12           C   tau(  12) = (  -0.3333332   0.7698001   0.0000000  )
        13           C   tau(  13) = (   0.3333332   0.1924500   0.0000000  )
        14           C   tau(  14) = (   0.1666666   0.4811250   0.0000000  )
        15           C   tau(  15) = (   0.0000000   0.7698001   0.0000000  )
        16           C   tau(  16) = (   0.6666664   0.1924500   0.0000000  )
        17           C   tau(  17) = (   0.4999998   0.4811250   0.0000000  )
        18           C   tau(  18) = (   0.3333332   0.7698001   0.0000000  )
        19           O   tau(  19) = (   0.1666768   0.3849238   0.1773056  )

     number of k points=     1  Marzari-Vanderbilt smearing, width (Ry)=  0.0100
                       cart. coord. in units 2pi/alat
        k(    1) = (   0.0000000   0.0000000   0.0000000), wk =   2.0000000

     Dense  grid:    56354 G-vectors     FFT dimensions: (  64,  64,  64)

     Smooth grid:    14264 G-vectors     FFT dimensions: (  40,  40,  40)

     Estimated max dynamical RAM per process >     134.39 MB

     Initial potential from superposition of free atoms

     starting charge   77.99905, renormalised to   78.00000
     Starting wfcs are   76 randomized atomic wfcs

     total cpu time spent up to now is        1.3 secs

     Self-consistent Calculation

     iteration #  1     ecut=    20.00 Ry     beta= 0.70
     Davidson diagonalization with overlap
     ethr =  1.00E-02,  avg # of iterations =  2.0

     negative rho (up, down):  2.763E-07 0.000E+00

     total cpu time spent up to now is        2.1 secs

     total energy              =    -235.93245629 Ry
     Harris-Foulkes estimate   =    -236.99209817 Ry
     estimated scf accuracy    <       1.81863065 Ry

     iteration #  2     ecut=    20.00 Ry     beta= 0.70
     Davidson diagonalization with overlap
     ethr =  2.33E-03,  avg # of iterations =  2.0

     negative rho (up, down):  2.840E-06 0.000E+00

     total cpu time spent up to now is        3.0 secs

     total energy              =    -236.18622302 Ry
     Harris-Foulkes estimate   =    -236.21341075 Ry
     estimated scf accuracy    <       0.05732118 Ry

     iteration #  3     ecut=    20.00 Ry     beta= 0.70
     Davidson diagonalization with overlap
     ethr =  7.35E-05,  avg # of iterations =  5.0

     negative rho (up, down):  6.781E-04 0.000E+00

     total cpu time spent up to now is        3.9 secs

     total energy              =    -236.17077690 Ry
     Harris-Foulkes estimate   =    -236.22453009 Ry
     estimated scf accuracy    <       0.13657388 Ry

     iteration #  4     ecut=    20.00 Ry     beta= 0.70
     Davidson diagonalization with overlap
     ethr =  7.35E-05,  avg # of iterations =  3.0

     negative rho (up, down):  1.348E-05 0.000E+00

     total cpu time spent up to now is        4.7 secs

     total energy              =    -236.20060447 Ry
     Harris-Foulkes estimate   =    -236.20610630 Ry
     estimated scf accuracy    <       0.01803330 Ry

     iteration #  5     ecut=    20.00 Ry     beta= 0.70
     Davidson diagonalization with overlap
     ethr =  2.31E-05,  avg # of iterations =  2.0

     negative rho (up, down):  1.661E-05 0.000E+00

     total cpu time spent up to now is        5.5 secs

     total energy              =    -236.20253990 Ry
     Harris-Foulkes estimate   =    -236.20348437 Ry
     estimated scf accuracy    <       0.00221735 Ry

     iteration #  6     ecut=    20.00 Ry     beta= 0.70
     Davidson diagonalization with overlap
     ethr =  2.84E-06,  avg # of iterations =  3.0

     negative rho (up, down):  3.073E-05 0.000E+00

     total cpu time spent up to now is        6.3 secs

     total energy              =    -236.20282080 Ry
     Harris-Foulkes estimate   =    -236.20332042 Ry
     estimated scf accuracy    <       0.00263594 Ry

     iteration #  7     ecut=    20.00 Ry     beta= 0.70
     Davidson diagonalization with overlap
     ethr =  2.84E-06,  avg # of iterations =  1.0

     negative rho (up, down):  1.473E-05 0.000E+00

     total cpu time spent up to now is        7.0 secs

     total energy              =    -236.20304670 Ry
     Harris-Foulkes estimate   =    -236.20312497 Ry
     estimated scf accuracy    <       0.00030809 Ry

     iteration #  8     ecut=    20.00 Ry     beta= 0.70
     Davidson diagonalization with overlap
     ethr =  3.95E-07,  avg # of iterations =  2.0

     negative rho (up, down):  1.360E-05 0.000E+00

     total cpu time spent up to now is        7.8 secs

     total energy              =    -236.20308302 Ry
     Harris-Foulkes estimate   =    -236.20308539 Ry
     estimated scf accuracy    <       0.00000545 Ry

     iteration #  9     ecut=    20.00 Ry     beta= 0.70
     Davidson diagonalization with overlap
     ethr =  6.98E-09,  avg # of iterations =  3.0

     negative rho (up, down):  1.349E-05 0.000E+00

     total cpu time spent up to now is        8.6 secs

     total energy              =    -236.20308492 Ry
     Harris-Foulkes estimate   =    -236.20308573 Ry
     estimated scf accuracy    <       0.00000174 Ry

     iteration # 10     ecut=    20.00 Ry     beta= 0.70
     Davidson diagonalization with overlap
     ethr =  2.23E-09,  avg # of iterations =  2.0

     negative rho (up, down):  1.349E-05 0.000E+00

     total cpu time spent up to now is        9.4 secs

     total energy              =    -236.20308534 Ry
     Harris-Foulkes estimate   =    -236.20308543 Ry
     estimated scf accuracy    <       0.00000029 Ry

     iteration # 11     ecut=    20.00 Ry     beta= 0.70
     Davidson diagonalization with overlap
     ethr =  3.74E-10,  avg # of iterations =  2.0

     negative rho (up, down):  1.349E-05 0.000E+00

     total cpu time spent up to now is       10.2 secs

     total energy              =    -236.20308539 Ry
     Harris-Foulkes estimate   =    -236.20308539 Ry
     estimated scf accuracy    <       0.00000001 Ry

     iteration # 12     ecut=    20.00 Ry     beta= 0.70
     Davidson diagonalization with overlap
     ethr =  1.57E-11,  avg # of iterations =  2.0

     negative rho (up, down):  1.349E-05 0.000E+00

     total cpu time spent up to now is       11.0 secs

     End of self-consistent calculation

          k = 0.0000 0.0000 0.0000 (  1774 PWs)   bands (ev):

   -22.3970 -18.1902 -16.2926 -16.0157 -15.9897 -15.9660 -15.9432 -14.5847
   -12.0567 -11.7298 -11.6156 -11.4553  -9.8973  -9.7989  -9.1045  -8.9630
    -8.8875  -8.7931  -8.6673  -8.5870  -6.4531  -5.6862  -5.4940  -5.1881
    -5.0155  -4.8226  -4.8016  -4.7683  -4.3618  -3.8863  -3.6277  -3.6061
    -3.5932  -2.2091  -2.1449  -1.9606  -1.1173  -0.2702   1.0432   1.1324
     2.0408   3.8398   4.1563   5.9395   5.9620   5.9896   6.1242

     the Fermi energy is     1.1041 ev

!    total energy              =    -236.20308539 Ry
     Harris-Foulkes estimate   =    -236.20308539 Ry
     estimated scf accuracy    <          2.7E-09 Ry

     The total energy is the sum of the following terms:

     one-electron contribution =    -565.44845071 Ry
     hartree contribution      =     304.72425621 Ry
     xc contribution           =     -70.27512923 Ry
     ewald contribution        =      94.80133606 Ry
     smearing contrib. (-TS)   =      -0.00509772 Ry

     convergence has been achieved in  12 iterations

     Forces acting on atoms (cartesian axes, Ry/au):

     atom    1 type  1   force =    -0.01546690   -0.00955714   -0.00098106
     atom    2 type  1   force =     0.05449146   -0.03455024   -0.00637816
     atom    3 type  1   force =    -0.00031231    0.05226817    0.00042369
     atom    4 type  1   force =     0.01488385   -0.00954808   -0.00098272
     atom    5 type  1   force =    -0.00032303   -0.02827119    0.04523909
     atom    6 type  1   force =    -0.10848733    0.01179105   -0.03422577
     atom    7 type  1   force =     0.00063098    0.04740084   -0.00672191
     atom    8 type  1   force =    -0.05417860   -0.03402527   -0.00637875
     atom    9 type  1   force =     0.10878949    0.01230251   -0.03423554
     atom   10 type  1   force =    -0.10843068   -0.01238980   -0.03418980
     atom   11 type  1   force =     0.05410289    0.03399872   -0.00637565
     atom   12 type  1   force =    -0.00059191   -0.04703514   -0.00672142
     atom   13 type  1   force =     0.10802219   -0.01201106   -0.03420398
     atom   14 type  1   force =     0.00012053    0.02770497    0.04519930
     atom   15 type  1   force =    -0.01546826    0.00968997   -0.00098187
     atom   16 type  1   force =     0.00048451   -0.05197710    0.00042042
     atom   17 type  1   force =    -0.05416450    0.03458656   -0.00637684
     atom   18 type  1   force =     0.01607374    0.00991922   -0.00098265
     atom   19 type  2   force =    -0.00017612   -0.00029700    0.08845362

     Total force =     0.306162     Total SCF correction =     0.000104

     BFGS Geometry Optimization

     number of scf cycles    =   1
     number of bfgs steps    =   0

     energy   new            =    -236.2030853888 Ry

     new trust radius        =       0.1147108388 bohr
     new conv_thr            =       0.0000000100 Ry


ATOMIC_POSITIONS (angstrom)
C       -0.008184733  -0.005057423  -0.000519156
C       -1.202559239   2.114555292  -0.003375178
C       -2.462955027   4.293336115   0.000224210
C        2.470665953  -0.005052626  -0.000520035
C        1.231223939   2.117878020   0.023939495
C       -0.057409025   4.271916547  -0.018111496
C        4.925913421   0.025083444  -0.003557083
C        3.665514560   2.114833091  -0.003375487
C        2.520358677   4.272187197  -0.018116670
C       -0.057379045   1.415336011  -0.018092465
C       -1.202764862   3.572722250  -0.003373851
C       -2.463102985   5.662679467  -0.003556823
C        2.519952640   1.415536430  -0.018099967
C        1.231458664   3.569391738   0.023918438
C       -0.008185453   5.692697101  -0.000519581
C        4.925835912   1.394387314   0.000222479
C        3.665522023   3.573033318  -0.003374477
C        2.471295618   5.692818417  -0.000519997
O        1.231376804   2.843802837   1.356807642



     Writing output data file Graphene3x3-O_PBE.save/
     NEW-OLD atomic charge density approx. for the potential

     negative rho (up, down):  1.453E-05 0.000E+00

     total cpu time spent up to now is       11.9 secs

     Self-consistent Calculation

     iteration #  1     ecut=    20.00 Ry     beta= 0.70
     Davidson diagonalization with overlap
     ethr =  1.00E-06,  avg # of iterations = 10.0

     negative rho (up, down):  1.340E-05 0.000E+00

     total cpu time spent up to now is       13.2 secs

     total energy              =    -236.22872474 Ry
     Harris-Foulkes estimate   =    -236.25683607 Ry
     estimated scf accuracy    <       0.04298812 Ry

     iteration #  2     ecut=    20.00 Ry     beta= 0.70
     Davidson diagonalization with overlap
     ethr =  5.51E-05,  avg # of iterations =  2.0

     negative rho (up, down):  7.182E-05 0.000E+00

     total cpu time spent up to now is       14.0 secs

     total energy              =    -236.23628470 Ry
     Harris-Foulkes estimate   =    -236.24489849 Ry
     estimated scf accuracy    <       0.01465412 Ry

     iteration #  3     ecut=    20.00 Ry     beta= 0.70
     Davidson diagonalization with overlap
     ethr =  1.88E-05,  avg # of iterations =  2.0

     negative rho (up, down):  7.582E-05 0.000E+00

     total cpu time spent up to now is       14.8 secs

     total energy              =    -236.23906233 Ry
     Harris-Foulkes estimate   =    -236.24271623 Ry
     estimated scf accuracy    <       0.00882669 Ry

     iteration #  4     ecut=    20.00 Ry     beta= 0.70
     Davidson diagonalization with overlap
     ethr =  1.13E-05,  avg # of iterations =  2.0

     negative rho (up, down):  1.890E-05 0.000E+00

     total cpu time spent up to now is       15.7 secs

     total energy              =    -236.24083035 Ry
     Harris-Foulkes estimate   =    -236.24113225 Ry
     estimated scf accuracy    <       0.00076008 Ry

     iteration #  5     ecut=    20.00 Ry     beta= 0.70
     Davidson diagonalization with overlap
     ethr =  9.74E-07,  avg # of iterations =  2.0

     negative rho (up, down):  1.438E-05 0.000E+00

     total cpu time spent up to now is       16.5 secs

     total energy              =    -236.24098713 Ry
     Harris-Foulkes estimate   =    -236.24102532 Ry
     estimated scf accuracy    <       0.00007776 Ry

     iteration #  6     ecut=    20.00 Ry     beta= 0.70
     Davidson diagonalization with overlap
     ethr =  9.97E-08,  avg # of iterations =  2.0

     negative rho (up, down):  1.374E-05 0.000E+00

     total cpu time spent up to now is       17.3 secs

     total energy              =    -236.24100523 Ry
     Harris-Foulkes estimate   =    -236.24100867 Ry
     estimated scf accuracy    <       0.00000744 Ry

     iteration #  7     ecut=    20.00 Ry     beta= 0.70
     Davidson diagonalization with overlap
     ethr =  9.54E-09,  avg # of iterations =  2.0

     negative rho (up, down):  1.355E-05 0.000E+00

     total cpu time spent up to now is       18.1 secs

     total energy              =    -236.24100703 Ry
     Harris-Foulkes estimate   =    -236.24100731 Ry
     estimated scf accuracy    <       0.00000069 Ry

     iteration #  8     ecut=    20.00 Ry     beta= 0.70
     Davidson diagonalization with overlap
     ethr =  8.84E-10,  avg # of iterations =  3.0

     negative rho (up, down):  1.352E-05 0.000E+00

     total cpu time spent up to now is       19.0 secs

     total energy              =    -236.24100715 Ry
     Harris-Foulkes estimate   =    -236.24100732 Ry
     estimated scf accuracy    <       0.00000041 Ry

     iteration #  9     ecut=    20.00 Ry     beta= 0.70
     Davidson diagonalization with overlap
     ethr =  5.23E-10,  avg # of iterations =  3.0

     negative rho (up, down):  1.352E-05 0.000E+00

     total cpu time spent up to now is       19.7 secs

     total energy              =    -236.24100723 Ry
     Harris-Foulkes estimate   =    -236.24100723 Ry
     estimated scf accuracy    <       0.00000001 Ry

     iteration # 10     ecut=    20.00 Ry     beta= 0.70
     Davidson diagonalization with overlap
     ethr =  1.39E-11,  avg # of iterations =  3.0

     negative rho (up, down):  1.352E-05 0.000E+00

     total cpu time spent up to now is       20.6 secs

     End of self-consistent calculation

          k = 0.0000 0.0000 0.0000 (  1774 PWs)   bands (ev):

   -21.6894 -18.2574 -16.2470 -16.2419 -16.2029 -15.9904 -15.7664 -14.5018
   -11.9432 -11.6184 -11.5741 -11.5274  -9.8991  -9.5968  -9.2343  -8.9990
    -8.8486  -8.7257  -8.6120  -8.5869  -6.4808  -5.5056  -5.3524  -5.1622
    -5.1329  -4.9198  -4.7978  -4.6238  -4.0734  -3.9594  -3.8022  -3.7365
    -3.4175  -2.2148  -2.0560  -1.9951  -0.9795  -0.4686   0.7069   1.3824
     2.3218   3.8957   4.1527   5.5681   6.0732   6.2902   6.3135

     the Fermi energy is     0.8322 ev

!    total energy              =    -236.24100723 Ry
     Harris-Foulkes estimate   =    -236.24100723 Ry
     estimated scf accuracy    <          1.8E-09 Ry

     The total energy is the sum of the following terms:

     one-electron contribution =    -561.89605889 Ry
     hartree contribution      =     303.02358326 Ry
     xc contribution           =     -70.29793708 Ry
     ewald contribution        =      92.92777450 Ry
     smearing contrib. (-TS)   =       0.00163099 Ry

     convergence has been achieved in  10 iterations

     Forces acting on atoms (cartesian axes, Ry/au):

     atom    1 type  1   force =    -0.03524842   -0.05244247   -0.00586756
     atom    2 type  1   force =    -0.05807646   -0.00067526   -0.00811827
     atom    3 type  1   force =    -0.00022726   -0.05756929   -0.00004236
     atom    4 type  1   force =     0.03574535   -0.05264804   -0.00587404
     atom    5 type  1   force =    -0.00028348    0.00144595    0.05812349
     atom    6 type  1   force =     0.06367903   -0.00536939   -0.01765282
     atom    7 type  1   force =    -0.00012505   -0.05891002   -0.00312142
     atom    8 type  1   force =     0.05676961   -0.00119306   -0.00812895
     atom    9 type  1   force =    -0.06442444   -0.00613558   -0.01766079
     atom   10 type  1   force =     0.06367949    0.00641104   -0.01765274
     atom   11 type  1   force =    -0.05735644    0.00080435   -0.00812123
     atom   12 type  1   force =     0.00028006    0.05865248   -0.00312295
     atom   13 type  1   force =    -0.06247263    0.00600816   -0.01763454
     atom   14 type  1   force =     0.00036270   -0.00130244    0.05814540
     atom   15 type  1   force =    -0.03586336    0.05263193   -0.00587792
     atom   16 type  1   force =     0.00013044    0.05768583   -0.00005095
     atom   17 type  1   force =     0.05814254    0.00043580   -0.00811366
     atom   18 type  1   force =     0.03543543    0.05244972   -0.00587003
     atom   19 type  2   force =    -0.00014712   -0.00027973    0.01664135

     Total force =     0.260655     Total SCF correction =     0.000085

     number of scf cycles    =   2
     number of bfgs steps    =   1

     energy   old            =    -236.2030853888 Ry
     energy   new            =    -236.2410072312 Ry

     CASE: energy  _new < energy  _old

     new trust radius        =       0.0544770412 bohr
     new conv_thr            =       0.0000000064 Ry


ATOMIC_POSITIONS (angstrom)
C       -0.023740039  -0.026194390  -0.002870923
C       -1.216263771   2.109149780  -0.007377681
C       -2.463087017   4.279490706   0.000271463
C        2.486321107  -0.026265510  -0.002874482
C        1.231069218   2.114206074   0.052532274
C       -0.049649800   4.271656450  -0.029850105
C        4.925960501   0.010008331  -0.005732639
C        3.678774528   2.109311227  -0.007382094
C        2.512364324   4.271715368  -0.029859734
C       -0.049611200   1.415898365  -0.029825682
C       -1.216256694   3.578094049  -0.007377093
C       -2.463085976   5.677712308  -0.005732883
C        2.512577515   1.416003822  -0.029828455
C        1.231612968   3.573033198   0.052513519
C       -0.023972103   5.713925089  -0.002875362
C        4.925957185   1.408319929   0.000266017
C        3.679300149   3.578354238  -0.007375051
C        2.487011702   5.714012098  -0.002872928
O        1.231295244   2.843653408   1.376251839



     Writing output data file Graphene3x3-O_PBE.save/
     NEW-OLD atomic charge density approx. for the potential

     negative rho (up, down):  1.216E-05 0.000E+00

     total cpu time spent up to now is       21.5 secs

     Self-consistent Calculation

     iteration #  1     ecut=    20.00 Ry     beta= 0.70
     Davidson diagonalization with overlap
     ethr =  1.00E-06,  avg # of iterations =  5.0

     negative rho (up, down):  1.251E-05 0.000E+00

     total cpu time spent up to now is       22.6 secs

     total energy              =    -236.25494348 Ry
     Harris-Foulkes estimate   =    -236.25884911 Ry
     estimated scf accuracy    <       0.00646749 Ry

     iteration #  2     ecut=    20.00 Ry     beta= 0.70
     Davidson diagonalization with overlap
     ethr =  8.29E-06,  avg # of iterations =  2.0

     negative rho (up, down):  3.812E-05 0.000E+00

     total cpu time spent up to now is       23.4 secs

     total energy              =    -236.25523728 Ry
     Harris-Foulkes estimate   =    -236.25806040 Ry
     estimated scf accuracy    <       0.00550184 Ry

     iteration #  3     ecut=    20.00 Ry     beta= 0.70
     Davidson diagonalization with overlap
     ethr =  7.05E-06,  avg # of iterations =  2.0

     negative rho (up, down):  2.381E-05 0.000E+00

     total cpu time spent up to now is       24.2 secs

     total energy              =    -236.25639510 Ry
     Harris-Foulkes estimate   =    -236.25724407 Ry
     estimated scf accuracy    <       0.00213190 Ry

     iteration #  4     ecut=    20.00 Ry     beta= 0.70
     Davidson diagonalization with overlap
     ethr =  2.73E-06,  avg # of iterations =  2.0

     negative rho (up, down):  1.349E-05 0.000E+00

     total cpu time spent up to now is       25.0 secs

     total energy              =    -236.25682553 Ry
     Harris-Foulkes estimate   =    -236.25688028 Ry
     estimated scf accuracy    <       0.00014321 Ry

     iteration #  5     ecut=    20.00 Ry     beta= 0.70
     Davidson diagonalization with overlap
     ethr =  1.84E-07,  avg # of iterations =  2.0

     negative rho (up, down):  1.310E-05 0.000E+00

     total cpu time spent up to now is       25.8 secs

     total energy              =    -236.25684968 Ry
     Harris-Foulkes estimate   =    -236.25685576 Ry
     estimated scf accuracy    <       0.00001242 Ry

     iteration #  6     ecut=    20.00 Ry     beta= 0.70
     Davidson diagonalization with overlap
     ethr =  1.59E-08,  avg # of iterations =  3.0

     negative rho (up, down):  1.288E-05 0.000E+00

     total cpu time spent up to now is       26.6 secs

     total energy              =    -236.25685285 Ry
     Harris-Foulkes estimate   =    -236.25685397 Ry
     estimated scf accuracy    <       0.00000277 Ry

     iteration #  7     ecut=    20.00 Ry     beta= 0.70
     Davidson diagonalization with overlap
     ethr =  3.56E-09,  avg # of iterations =  3.0

     negative rho (up, down):  1.282E-05 0.000E+00

     total cpu time spent up to now is       27.4 secs

     total energy              =    -236.25685347 Ry
     Harris-Foulkes estimate   =    -236.25685356 Ry
     estimated scf accuracy    <       0.00000025 Ry

     iteration #  8     ecut=    20.00 Ry     beta= 0.70
     Davidson diagonalization with overlap
     ethr =  3.16E-10,  avg # of iterations =  2.0

     negative rho (up, down):  1.282E-05 0.000E+00

     total cpu time spent up to now is       28.2 secs

     End of self-consistent calculation

          k = 0.0000 0.0000 0.0000 (  1774 PWs)   bands (ev):

   -21.7236 -18.2990 -16.3127 -16.1886 -16.1167 -15.9339 -15.8653 -14.4875
   -12.0168 -11.7262 -11.4970 -11.4800  -9.8686  -9.6132  -9.1238  -9.0311
    -8.8585  -8.7319  -8.7017  -8.4908  -6.4917  -5.6068  -5.2881  -5.2095
    -5.1849  -4.9688  -4.7032  -4.6695  -3.9897  -3.8678  -3.8244  -3.7070
    -3.5466  -2.3653  -2.0215  -1.9473  -1.0389  -0.3131   0.6021   1.4909
     2.1669   3.7888   4.1495   5.8097   6.0139   6.1296   6.2894

     the Fermi energy is     0.7274 ev

!    total energy              =    -236.25685352 Ry
     Harris-Foulkes estimate   =    -236.25685352 Ry
     estimated scf accuracy    <          2.5E-09 Ry

     The total energy is the sum of the following terms:

     one-electron contribution =    -560.61019755 Ry
     hartree contribution      =     302.36197717 Ry
     xc contribution           =     -70.28899962 Ry
     ewald contribution        =      92.27873549 Ry
     smearing contrib. (-TS)   =       0.00163099 Ry

     convergence has been achieved in   8 iterations

     Forces acting on atoms (cartesian axes, Ry/au):

     atom    1 type  1   force =     0.04427709    0.03992255   -0.00838989
     atom    2 type  1   force =    -0.00659248    0.01735961   -0.00875645
     atom    3 type  1   force =     0.00044091    0.01626236   -0.00387575
     atom    4 type  1   force =    -0.04293861    0.03931295   -0.00839980
     atom    5 type  1   force =     0.00038244    0.01354567    0.04216672
     atom    6 type  1   force =     0.02037624    0.00715308   -0.00604089
     atom    7 type  1   force =     0.00000846    0.01855171   -0.00238674
     atom    8 type  1   force =     0.00784718    0.01729685   -0.00872898
     atom    9 type  1   force =    -0.02016577    0.00689218   -0.00605415
     atom   10 type  1   force =     0.02049361   -0.00700756   -0.00610300
     atom   11 type  1   force =    -0.00734651   -0.01670909   -0.00874649
     atom   12 type  1   force =    -0.00001475   -0.01832216   -0.00238854
     atom   13 type  1   force =    -0.02088541   -0.00735419   -0.00606051
     atom   14 type  1   force =    -0.00021553   -0.01325083    0.04219198
     atom   15 type  1   force =     0.04337760   -0.03955931   -0.00840704
     atom   16 type  1   force =    -0.00044086   -0.01659853   -0.00387150
     atom   17 type  1   force =     0.00629122   -0.01690461   -0.00875930
     atom   18 type  1   force =    -0.04474408   -0.04032376   -0.00839700
     atom   19 type  2   force =    -0.00015076   -0.00026693    0.02100733

     Total force =     0.153681     Total SCF correction =     0.000077

     number of scf cycles    =   3
     number of bfgs steps    =   2

     energy   old            =    -236.2410072312 Ry
     energy   new            =    -236.2568535216 Ry

     CASE: energy  _new < energy  _old

     new trust radius        =       0.0560968753 bohr
     new conv_thr            =       0.0000000045 Ry


ATOMIC_POSITIONS (angstrom)
C       -0.009338319  -0.016168740  -0.007588539
C       -1.226352487   2.115931681  -0.012755207
C       -2.462929718   4.279798058  -0.001483633
C        2.472584873  -0.016547310  -0.007597613
C        1.231191236   2.119754624   0.081694048
C       -0.034031636   4.274447406  -0.036228673
C        4.925964014   0.011013980  -0.007479151
C        3.689247180   2.116002505  -0.012748752
C        2.496739201   4.274288160  -0.036245806
C       -0.033937989   1.413311772  -0.036231414
C       -1.226591740   3.571610981  -0.012750462
C       -2.463068049   5.676783120  -0.007480428
C        2.496894735   1.413210537  -0.036212575
C        1.231572739   3.567623593   0.081688887
C       -0.010071034   5.704096670  -0.007602339
C        4.925790449   1.407885709  -0.001488527
C        3.689271363   3.571744357  -0.012753145
C        2.472443389   5.703815760  -0.007594186
O        1.231199631   2.843481677   1.390857515



     Writing output data file Graphene3x3-O_PBE.save/
     NEW-OLD atomic charge density approx. for the potential

     negative rho (up, down):  1.237E-05 0.000E+00

     total cpu time spent up to now is       29.1 secs

     Self-consistent Calculation

     iteration #  1     ecut=    20.00 Ry     beta= 0.70
     Davidson diagonalization with overlap
     ethr =  1.00E-06,  avg # of iterations = 10.0

     negative rho (up, down):  1.218E-05 0.000E+00

     total cpu time spent up to now is       30.2 secs

     total energy              =    -236.26117479 Ry
     Harris-Foulkes estimate   =    -236.26456441 Ry
     estimated scf accuracy    <       0.00552314 Ry

     iteration #  2     ecut=    20.00 Ry     beta= 0.70
     Davidson diagonalization with overlap
     ethr =  7.08E-06,  avg # of iterations =  2.0

     negative rho (up, down):  1.822E-05 0.000E+00

     total cpu time spent up to now is       31.1 secs

     total energy              =    -236.26209637 Ry
     Harris-Foulkes estimate   =    -236.26320793 Ry
     estimated scf accuracy    <       0.00188811 Ry

     iteration #  3     ecut=    20.00 Ry     beta= 0.70
     Davidson diagonalization with overlap
     ethr =  2.42E-06,  avg # of iterations =  3.0

     negative rho (up, down):  1.590E-05 0.000E+00

     total cpu time spent up to now is       31.9 secs

     total energy              =    -236.26252242 Ry
     Harris-Foulkes estimate   =    -236.26280511 Ry
     estimated scf accuracy    <       0.00058553 Ry

     iteration #  4     ecut=    20.00 Ry     beta= 0.70
     Davidson diagonalization with overlap
     ethr =  7.51E-07,  avg # of iterations =  3.0

     negative rho (up, down):  1.273E-05 0.000E+00

     total cpu time spent up to now is       32.7 secs

     total energy              =    -236.26265657 Ry
     Harris-Foulkes estimate   =    -236.26270289 Ry
     estimated scf accuracy    <       0.00011146 Ry

     iteration #  5     ecut=    20.00 Ry     beta= 0.70
     Davidson diagonalization with overlap
     ethr =  1.43E-07,  avg # of iterations =  2.0

     negative rho (up, down):  1.223E-05 0.000E+00

     total cpu time spent up to now is       33.5 secs

     total energy              =    -236.26267814 Ry
     Harris-Foulkes estimate   =    -236.26268114 Ry
     estimated scf accuracy    <       0.00000587 Ry

     iteration #  6     ecut=    20.00 Ry     beta= 0.70
     Davidson diagonalization with overlap
     ethr =  7.52E-09,  avg # of iterations =  2.0

     negative rho (up, down):  1.223E-05 0.000E+00

     total cpu time spent up to now is       34.3 secs

     total energy              =    -236.26267955 Ry
     Harris-Foulkes estimate   =    -236.26268094 Ry
     estimated scf accuracy    <       0.00000357 Ry

     iteration #  7     ecut=    20.00 Ry     beta= 0.70
     Davidson diagonalization with overlap
     ethr =  4.58E-09,  avg # of iterations =  2.0

     negative rho (up, down):  1.222E-05 0.000E+00

     total cpu time spent up to now is       35.1 secs

     total energy              =    -236.26268020 Ry
     Harris-Foulkes estimate   =    -236.26268031 Ry
     estimated scf accuracy    <       0.00000025 Ry

     iteration #  8     ecut=    20.00 Ry     beta= 0.70
     Davidson diagonalization with overlap
     ethr =  3.18E-10,  avg # of iterations =  2.0

     negative rho (up, down):  1.222E-05 0.000E+00

     total cpu time spent up to now is       35.9 secs

     total energy              =    -236.26268026 Ry
     Harris-Foulkes estimate   =    -236.26268029 Ry
     estimated scf accuracy    <       0.00000006 Ry

     iteration #  9     ecut=    20.00 Ry     beta= 0.70
     Davidson diagonalization with overlap
     ethr =  7.57E-11,  avg # of iterations =  2.0

     negative rho (up, down):  1.222E-05 0.000E+00

     total cpu time spent up to now is       36.7 secs

     End of self-consistent calculation

          k = 0.0000 0.0000 0.0000 (  1774 PWs)   bands (ev):

   -21.9500 -18.2968 -16.1721 -16.1612 -16.0568 -16.0245 -15.9257 -14.5472
   -11.8311 -11.7952 -11.6079 -11.4515  -9.8305  -9.6575  -9.0055  -8.9994
    -8.8482  -8.7670  -8.7642  -8.6061  -6.4832  -5.6620  -5.3280  -5.2221
    -5.0354  -4.9955  -4.7893  -4.7828  -4.0024  -3.7622  -3.7451  -3.7272
    -3.5711  -2.2226  -2.1341  -2.1086  -1.1322  -0.2976   0.8125   1.2890
     2.0980   3.8486   4.1486   5.8333   6.0146   6.0273   6.1679

     the Fermi energy is     0.9378 ev

!    total energy              =    -236.26268028 Ry
     Harris-Foulkes estimate   =    -236.26268028 Ry
     estimated scf accuracy    <          1.2E-09 Ry

     The total energy is the sum of the following terms:

     one-electron contribution =    -559.94538820 Ry
     hartree contribution      =     301.99536294 Ry
     xc contribution           =     -70.26771157 Ry
     ewald contribution        =      91.95342627 Ry
     smearing contrib. (-TS)   =       0.00163028 Ry

     convergence has been achieved in   9 iterations

     Forces acting on atoms (cartesian axes, Ry/au):

     atom    1 type  1   force =    -0.01630092   -0.00840763   -0.00818572
     atom    2 type  1   force =     0.03938455   -0.01966108   -0.00889551
     atom    3 type  1   force =    -0.00042313    0.01511038   -0.00720639
     atom    4 type  1   force =     0.01447058   -0.00796197   -0.00816199
     atom    5 type  1   force =     0.00019884   -0.00061531    0.02412493
     atom    6 type  1   force =    -0.03215672   -0.02807786    0.00086229
     atom    7 type  1   force =    -0.00044341    0.01404515   -0.00295503
     atom    8 type  1   force =    -0.03917668   -0.01954649   -0.00888644
     atom    9 type  1   force =     0.03146056   -0.02750320    0.00086186
     atom   10 type  1   force =    -0.03117770    0.02756688    0.00076999
     atom   11 type  1   force =     0.03916608    0.01957663   -0.00889532
     atom   12 type  1   force =     0.00037904   -0.01431801   -0.00295351
     atom   13 type  1   force =     0.03182727    0.02795580    0.00083109
     atom   14 type  1   force =    -0.00029129    0.00041926    0.02419602
     atom   15 type  1   force =    -0.01445776    0.00817699   -0.00816123
     atom   16 type  1   force =     0.00044786   -0.01486193   -0.00719858
     atom   17 type  1   force =    -0.03918255    0.01961512   -0.00889073
     atom   18 type  1   force =     0.01642330    0.00868344   -0.00818475
     atom   19 type  2   force =    -0.00014792   -0.00019617    0.03692900

     Total force =     0.141805     Total SCF correction =     0.000081

     number of scf cycles    =   4
     number of bfgs steps    =   3

     energy   old            =    -236.2568535216 Ry
     energy   new            =    -236.2626802753 Ry

     CASE: energy  _new < energy  _old

     new trust radius        =       0.0582722192 bohr
     new conv_thr            =       0.0000000039 Ry


ATOMIC_POSITIONS (angstrom)
C       -0.009593520  -0.016594085  -0.013905639
C       -1.218278002   2.111200015  -0.019991910
C       -2.463024913   4.284311910  -0.005348176
C        2.472515586  -0.016986261  -0.013908925
C        1.231318171   2.122102585   0.112404215
C       -0.037110220   4.264999206  -0.041394632
C        4.925800406   0.015320781  -0.009999232
C        3.681419417   2.111249915  -0.019976094
C        2.499507719   4.264913325  -0.041416972
C       -0.036595930   1.422715729  -0.041448791
C       -1.218720107   3.576476234  -0.019984754
C       -2.462908378   5.672409097  -0.010000576
C        2.499855796   1.422636497  -0.041392606
C        1.231455911   3.565272169   0.112435211
C       -0.009921493   5.704559097  -0.013915777
C        4.925889305   1.403409490  -0.005350186
C        3.681219929   3.576546792  -0.019988019
C        2.472674895   5.704260154  -0.013913195
O        1.231073267   2.843281891   1.417096060



     Writing output data file Graphene3x3-O_PBE.save/
     NEW-OLD atomic charge density approx. for the potential

     negative rho (up, down):  1.194E-05 0.000E+00

     total cpu time spent up to now is       37.6 secs

     Self-consistent Calculation

     iteration #  1     ecut=    20.00 Ry     beta= 0.70
     Davidson diagonalization with overlap
     ethr =  1.00E-06,  avg # of iterations =  5.0

     negative rho (up, down):  1.119E-05 0.000E+00

     total cpu time spent up to now is       38.7 secs

     total energy              =    -236.27016314 Ry
     Harris-Foulkes estimate   =    -236.27140392 Ry
     estimated scf accuracy    <       0.00245558 Ry

     iteration #  2     ecut=    20.00 Ry     beta= 0.70
     Davidson diagonalization with overlap
     ethr =  3.15E-06,  avg # of iterations =  2.0

     negative rho (up, down):  1.793E-05 0.000E+00

     total cpu time spent up to now is       39.5 secs

     total energy              =    -236.27033245 Ry
     Harris-Foulkes estimate   =    -236.27099338 Ry
     estimated scf accuracy    <       0.00115205 Ry

     iteration #  3     ecut=    20.00 Ry     beta= 0.70
     Davidson diagonalization with overlap
     ethr =  1.48E-06,  avg # of iterations =  2.0

     negative rho (up, down):  1.485E-05 0.000E+00

     total cpu time spent up to now is       40.5 secs

     total energy              =    -236.27059257 Ry
     Harris-Foulkes estimate   =    -236.27088202 Ry
     estimated scf accuracy    <       0.00071977 Ry

     iteration #  4     ecut=    20.00 Ry     beta= 0.70
     Davidson diagonalization with overlap
     ethr =  9.23E-07,  avg # of iterations =  2.0

     negative rho (up, down):  1.211E-05 0.000E+00

     total cpu time spent up to now is       41.3 secs

     total energy              =    -236.27072169 Ry
     Harris-Foulkes estimate   =    -236.27075112 Ry
     estimated scf accuracy    <       0.00006393 Ry

     iteration #  5     ecut=    20.00 Ry     beta= 0.70
     Davidson diagonalization with overlap
     ethr =  8.20E-08,  avg # of iterations =  3.0

     negative rho (up, down):  1.134E-05 0.000E+00

     total cpu time spent up to now is       42.1 secs

     total energy              =    -236.27073725 Ry
     Harris-Foulkes estimate   =    -236.27074493 Ry
     estimated scf accuracy    <       0.00001950 Ry

     iteration #  6     ecut=    20.00 Ry     beta= 0.70
     Davidson diagonalization with overlap
     ethr =  2.50E-08,  avg # of iterations =  3.0

     negative rho (up, down):  1.114E-05 0.000E+00

     total cpu time spent up to now is       42.9 secs

     total energy              =    -236.27074054 Ry
     Harris-Foulkes estimate   =    -236.27074120 Ry
     estimated scf accuracy    <       0.00000130 Ry

     iteration #  7     ecut=    20.00 Ry     beta= 0.70
     Davidson diagonalization with overlap
     ethr =  1.66E-09,  avg # of iterations =  2.0

     negative rho (up, down):  1.111E-05 0.000E+00

     total cpu time spent up to now is       43.7 secs

     total energy              =    -236.27074088 Ry
     Harris-Foulkes estimate   =    -236.27074100 Ry
     estimated scf accuracy    <       0.00000027 Ry

     iteration #  8     ecut=    20.00 Ry     beta= 0.70
     Davidson diagonalization with overlap
     ethr =  3.50E-10,  avg # of iterations =  2.0

     negative rho (up, down):  1.110E-05 0.000E+00

     total cpu time spent up to now is       44.5 secs

     total energy              =    -236.27074094 Ry
     Harris-Foulkes estimate   =    -236.27074094 Ry
     estimated scf accuracy    <       0.00000001 Ry

     iteration #  9     ecut=    20.00 Ry     beta= 0.70
     Davidson diagonalization with overlap
     ethr =  1.77E-11,  avg # of iterations =  2.0

     negative rho (up, down):  1.110E-05 0.000E+00

     total cpu time spent up to now is       45.4 secs

     End of self-consistent calculation

          k = 0.0000 0.0000 0.0000 (  1774 PWs)   bands (ev):

   -21.9979 -18.2972 -16.1994 -16.1585 -16.0866 -16.0012 -15.8548 -14.6042
   -11.8665 -11.7858 -11.5197 -11.4782  -9.8370  -9.6203  -9.0331  -9.0257
    -8.8668  -8.7279  -8.7208  -8.5841  -6.4825  -5.7004  -5.3394  -5.3291
    -5.0348  -5.0307  -4.7419  -4.7085  -3.9647  -3.7712  -3.7376  -3.7132
    -3.5243  -2.2602  -2.1843  -2.0648  -1.1772  -0.3219   0.7244   1.3810
     2.1311   3.8531   4.1451   5.7388   6.0467   6.0508   6.1525

     the Fermi energy is     0.8497 ev

!    total energy              =    -236.27074094 Ry
     Harris-Foulkes estimate   =    -236.27074094 Ry
     estimated scf accuracy    <          5.6E-10 Ry

     The total energy is the sum of the following terms:

     one-electron contribution =    -558.77893535 Ry
     hartree contribution      =     301.40385035 Ry
     xc contribution           =     -70.27114857 Ry
     ewald contribution        =      91.37386165 Ry
     smearing contrib. (-TS)   =       0.00163099 Ry

     convergence has been achieved in   9 iterations

     Forces acting on atoms (cartesian axes, Ry/au):

     atom    1 type  1   force =    -0.01662198    0.00093015   -0.00820212
     atom    2 type  1   force =     0.00903646    0.00313673   -0.00734275
     atom    3 type  1   force =    -0.00037698   -0.00304814   -0.01029897
     atom    4 type  1   force =     0.01624814    0.00152105   -0.00818391
     atom    5 type  1   force =     0.00018814   -0.00431054    0.01318080
     atom    6 type  1   force =    -0.00673377    0.00370746    0.00711313
     atom    7 type  1   force =     0.00024528   -0.00410727   -0.00413393
     atom    8 type  1   force =    -0.00928694    0.00321844   -0.00731998
     atom    9 type  1   force =     0.00683600    0.00383993    0.00711972
     atom   10 type  1   force =    -0.00694386   -0.00382879    0.00697022
     atom   11 type  1   force =     0.00890040   -0.00348148   -0.00731857
     atom   12 type  1   force =    -0.00024467    0.00407634   -0.00412939
     atom   13 type  1   force =     0.00703045   -0.00369211    0.00706516
     atom   14 type  1   force =    -0.00033886    0.00408184    0.01327902
     atom   15 type  1   force =    -0.01639190   -0.00134104   -0.00817967
     atom   16 type  1   force =     0.00039348    0.00328438   -0.01028834
     atom   17 type  1   force =    -0.00869495   -0.00326546   -0.00732754
     atom   18 type  1   force =     0.01685541   -0.00065440   -0.00817956
     atom   19 type  2   force =    -0.00009984   -0.00006709    0.03617668

     Total force =     0.066239     Total SCF correction =     0.000042

     number of scf cycles    =   5
     number of bfgs steps    =   4

     energy   old            =    -236.2626802753 Ry
     energy   new            =    -236.2707409429 Ry

     CASE: energy  _new < energy  _old

     new trust radius        =       0.1095456449 bohr
     new conv_thr            =       0.0000000036 Ry


ATOMIC_POSITIONS (angstrom)
C       -0.018061585  -0.013337518  -0.027233483
C       -1.210406221   2.112604076  -0.033842520
C       -2.463336887   4.285123589  -0.017089829
C        2.480793807  -0.013414958  -0.027221221
C        1.231590006   2.121669824   0.161236327
C       -0.039292561   4.263707580  -0.044132229
C        4.925921043   0.015226018  -0.016252680
C        3.673659804   2.112667117  -0.033797100
C        2.501559524   4.263663982  -0.044156935
C       -0.038651582   1.423991638  -0.044347992
C       -1.211203483   3.575004967  -0.033811982
C       -2.463013349   5.672480554  -0.016250904
C        2.502194978   1.423937837  -0.044179597
C        1.231102016   3.565565434   0.161376494
C       -0.018213249   5.701100668  -0.027227978
C        4.926216495   1.402768398  -0.017081465
C        3.673599937   3.575161548  -0.033825088
C        2.481268364   5.701172111  -0.027225781
O        1.230850781   2.842991674   1.475063965



     Writing output data file Graphene3x3-O_PBE.save/
     NEW-OLD atomic charge density approx. for the potential

     negative rho (up, down):  1.133E-05 0.000E+00

     total cpu time spent up to now is       46.3 secs

     Self-consistent Calculation

     iteration #  1     ecut=    20.00 Ry     beta= 0.70
     Davidson diagonalization with overlap
     ethr =  1.00E-06,  avg # of iterations =  6.0

     negative rho (up, down):  9.319E-06 0.000E+00

     total cpu time spent up to now is       47.5 secs

     total energy              =    -236.27577112 Ry
     Harris-Foulkes estimate   =    -236.27777152 Ry
     estimated scf accuracy    <       0.00506910 Ry

     iteration #  2     ecut=    20.00 Ry     beta= 0.70
     Davidson diagonalization with overlap
     ethr =  6.50E-06,  avg # of iterations =  3.0

     negative rho (up, down):  2.868E-05 0.000E+00

     total cpu time spent up to now is       48.4 secs

     total energy              =    -236.27617275 Ry
     Harris-Foulkes estimate   =    -236.27720400 Ry
     estimated scf accuracy    <       0.00181990 Ry

     iteration #  3     ecut=    20.00 Ry     beta= 0.70
     Davidson diagonalization with overlap
     ethr =  2.33E-06,  avg # of iterations =  3.0

     negative rho (up, down):  1.812E-05 0.000E+00

     total cpu time spent up to now is       49.3 secs

     total energy              =    -236.27660431 Ry
     Harris-Foulkes estimate   =    -236.27701446 Ry
     estimated scf accuracy    <       0.00093420 Ry

     iteration #  4     ecut=    20.00 Ry     beta= 0.70
     Davidson diagonalization with overlap
     ethr =  1.20E-06,  avg # of iterations =  3.0

     negative rho (up, down):  1.024E-05 0.000E+00

     total cpu time spent up to now is       50.1 secs

     total energy              =    -236.27679472 Ry
     Harris-Foulkes estimate   =    -236.27683481 Ry
     estimated scf accuracy    <       0.00009216 Ry

     iteration #  5     ecut=    20.00 Ry     beta= 0.70
     Davidson diagonalization with overlap
     ethr =  1.18E-07,  avg # of iterations =  2.0

     negative rho (up, down):  9.416E-06 0.000E+00

     total cpu time spent up to now is       50.9 secs

     total energy              =    -236.27681392 Ry
     Harris-Foulkes estimate   =    -236.27682072 Ry
     estimated scf accuracy    <       0.00001437 Ry

     iteration #  6     ecut=    20.00 Ry     beta= 0.70
     Davidson diagonalization with overlap
     ethr =  1.84E-08,  avg # of iterations =  2.0

     negative rho (up, down):  9.346E-06 0.000E+00

     total cpu time spent up to now is       51.7 secs

     total energy              =    -236.27681703 Ry
     Harris-Foulkes estimate   =    -236.27681810 Ry
     estimated scf accuracy    <       0.00000230 Ry

     iteration #  7     ecut=    20.00 Ry     beta= 0.70
     Davidson diagonalization with overlap
     ethr =  2.95E-09,  avg # of iterations =  2.0

     negative rho (up, down):  9.332E-06 0.000E+00

     total cpu time spent up to now is       52.6 secs

     total energy              =    -236.27681747 Ry
     Harris-Foulkes estimate   =    -236.27681763 Ry
     estimated scf accuracy    <       0.00000034 Ry

     iteration #  8     ecut=    20.00 Ry     beta= 0.70
     Davidson diagonalization with overlap
     ethr =  4.35E-10,  avg # of iterations =  2.0

     negative rho (up, down):  9.320E-06 0.000E+00

     total cpu time spent up to now is       53.3 secs

     total energy              =    -236.27681756 Ry
     Harris-Foulkes estimate   =    -236.27681758 Ry
     estimated scf accuracy    <       0.00000006 Ry

     iteration #  9     ecut=    20.00 Ry     beta= 0.70
     Davidson diagonalization with overlap
     ethr =  7.56E-11,  avg # of iterations =  2.0

     negative rho (up, down):  9.324E-06 0.000E+00

     total cpu time spent up to now is       54.1 secs

     End of self-consistent calculation

          k = 0.0000 0.0000 0.0000 (  1774 PWs)   bands (ev):

   -21.8164 -18.3096 -16.2151 -16.1895 -16.1341 -15.9377 -15.8423 -14.6437
   -11.9309 -11.6767 -11.5137 -11.4994  -9.8317  -9.5927  -9.0728  -9.0553
    -8.8459  -8.6729  -8.6680  -8.5543  -6.4959  -5.7463  -5.3724  -5.2738
    -5.0572  -5.0296  -4.7360  -4.7126  -3.8984  -3.7705  -3.7440  -3.6631
    -3.5219  -2.2427  -2.2154  -2.1127  -1.2226  -0.3453   0.6854   1.3911
     2.1530   3.7767   4.1394   5.6879   5.9961   6.0830   6.1939

     the Fermi energy is     0.8108 ev

!    total energy              =    -236.27681757 Ry
     Harris-Foulkes estimate   =    -236.27681757 Ry
     estimated scf accuracy    <          3.8E-10 Ry

     The total energy is the sum of the following terms:

     one-electron contribution =    -555.18534118 Ry
     hartree contribution      =     299.59879872 Ry
     xc contribution           =     -70.24234497 Ry
     ewald contribution        =      89.55043887 Ry
     smearing contrib. (-TS)   =       0.00163099 Ry

     convergence has been achieved in   9 iterations

     Forces acting on atoms (cartesian axes, Ry/au):

     atom    1 type  1   force =     0.01292994   -0.00322728   -0.00601114
     atom    2 type  1   force =    -0.01325145    0.00177804   -0.00486336
     atom    3 type  1   force =     0.00029360   -0.00960405   -0.01447108
     atom    4 type  1   force =    -0.01196506   -0.00372346   -0.00598766
     atom    5 type  1   force =    -0.00034610   -0.00650813    0.00506731
     atom    6 type  1   force =     0.01007226    0.00277258    0.01587759
     atom    7 type  1   force =     0.00019058   -0.01198400   -0.00699075
     atom    8 type  1   force =     0.01327925    0.00179075   -0.00482768
     atom    9 type  1   force =    -0.01038958    0.00292411    0.01596652
     atom   10 type  1   force =     0.01056964   -0.00299190    0.01576067
     atom   11 type  1   force =    -0.01262611   -0.00169365   -0.00481900
     atom   12 type  1   force =    -0.00010360    0.01247462   -0.00698588
     atom   13 type  1   force =    -0.01048623   -0.00285815    0.01583675
     atom   14 type  1   force =     0.00043344    0.00644541    0.00515212
     atom   15 type  1   force =     0.01195159    0.00366925   -0.00597661
     atom   16 type  1   force =    -0.00023619    0.00939139   -0.01445640
     atom   17 type  1   force =     0.01262231   -0.00186635   -0.00481787
     atom   18 type  1   force =    -0.01292014    0.00319240   -0.00594771
     atom   19 type  2   force =    -0.00001816    0.00001842    0.01249420

     Total force =     0.065932     Total SCF correction =     0.000048

     number of scf cycles    =   6
     number of bfgs steps    =   5

     energy   old            =    -236.2707409429 Ry
     energy   new            =    -236.2768175668 Ry

     CASE: energy  _new < energy  _old

     new trust radius        =       0.0972636479 bohr
     new conv_thr            =       0.0000000016 Ry


ATOMIC_POSITIONS (angstrom)
C       -0.014107522  -0.013958827  -0.041037619
C       -1.209534521   2.111430498  -0.047640774
C       -2.463354160   4.282642718  -0.034577125
C        2.477183000  -0.014203432  -0.040998663
C        1.231558503   2.117869166   0.204185239
C       -0.037597013   4.260023437  -0.037629433
C        4.926030053   0.010538837  -0.025346857
C        3.672996896   2.111511311  -0.047552095
C        2.499435398   4.260160694  -0.037598686
C       -0.036341615   1.427475181  -0.038029826
C       -1.210204140   3.576254475  -0.047567806
C       -2.463060588   5.677451036  -0.025340264
C        2.500225778   1.427549452  -0.037735926
C        1.231150192   3.569240694   0.204454524
C       -0.014586200   5.701927266  -0.040998971
C        4.926284614   1.405219118  -0.034552235
C        3.672454696   3.576320315  -0.047585340
C        2.477381065   5.701873995  -0.040980945
O        1.230663405   2.842758606   1.526532802



     Writing output data file Graphene3x3-O_PBE.save/
     NEW-OLD atomic charge density approx. for the potential

     negative rho (up, down):  8.762E-06 0.000E+00

     total cpu time spent up to now is       55.0 secs

     Self-consistent Calculation

     iteration #  1     ecut=    20.00 Ry     beta= 0.70
     Davidson diagonalization with overlap
     ethr =  1.00E-06,  avg # of iterations =  6.0

     negative rho (up, down):  7.484E-06 0.000E+00

     total cpu time spent up to now is       56.2 secs

     total energy              =    -236.28002458 Ry
     Harris-Foulkes estimate   =    -236.28159818 Ry
     estimated scf accuracy    <       0.00413523 Ry

     iteration #  2     ecut=    20.00 Ry     beta= 0.70
     Davidson diagonalization with overlap
     ethr =  5.30E-06,  avg # of iterations =  3.0

     negative rho (up, down):  2.456E-05 0.000E+00

     total cpu time spent up to now is       57.0 secs

     total energy              =    -236.28023701 Ry
     Harris-Foulkes estimate   =    -236.28115609 Ry
     estimated scf accuracy    <       0.00165022 Ry

     iteration #  3     ecut=    20.00 Ry     beta= 0.70
     Davidson diagonalization with overlap
     ethr =  2.12E-06,  avg # of iterations =  3.0

     negative rho (up, down):  2.046E-05 0.000E+00

     total cpu time spent up to now is       57.9 secs

     total energy              =    -236.28059472 Ry
     Harris-Foulkes estimate   =    -236.28108130 Ry
     estimated scf accuracy    <       0.00117906 Ry

     iteration #  4     ecut=    20.00 Ry     beta= 0.70
     Davidson diagonalization with overlap
     ethr =  1.51E-06,  avg # of iterations =  3.0

     negative rho (up, down):  8.323E-06 0.000E+00

     total cpu time spent up to now is       58.7 secs

     total energy              =    -236.28082519 Ry
     Harris-Foulkes estimate   =    -236.28085612 Ry
     estimated scf accuracy    <       0.00007139 Ry

     iteration #  5     ecut=    20.00 Ry     beta= 0.70
     Davidson diagonalization with overlap
     ethr =  9.15E-08,  avg # of iterations =  2.0

     negative rho (up, down):  7.664E-06 0.000E+00

     total cpu time spent up to now is       59.5 secs

     total energy              =    -236.28083822 Ry
     Harris-Foulkes estimate   =    -236.28084828 Ry
     estimated scf accuracy    <       0.00002286 Ry

     iteration #  6     ecut=    20.00 Ry     beta= 0.70
     Davidson diagonalization with overlap
     ethr =  2.93E-08,  avg # of iterations =  2.0

     negative rho (up, down):  7.577E-06 0.000E+00

     total cpu time spent up to now is       60.3 secs

     total energy              =    -236.28084300 Ry
     Harris-Foulkes estimate   =    -236.28084434 Ry
     estimated scf accuracy    <       0.00000321 Ry

     iteration #  7     ecut=    20.00 Ry     beta= 0.70
     Davidson diagonalization with overlap
     ethr =  4.12E-09,  avg # of iterations =  2.0

     negative rho (up, down):  7.576E-06 0.000E+00

     total cpu time spent up to now is       61.1 secs

     total energy              =    -236.28084362 Ry
     Harris-Foulkes estimate   =    -236.28084371 Ry
     estimated scf accuracy    <       0.00000018 Ry

     iteration #  8     ecut=    20.00 Ry     beta= 0.70
     Davidson diagonalization with overlap
     ethr =  2.33E-10,  avg # of iterations =  3.0

     negative rho (up, down):  7.574E-06 0.000E+00

     total cpu time spent up to now is       61.9 secs

     total energy              =    -236.28084367 Ry
     Harris-Foulkes estimate   =    -236.28084368 Ry
     estimated scf accuracy    <       0.00000001 Ry

     iteration #  9     ecut=    20.00 Ry     beta= 0.70
     Davidson diagonalization with overlap
     ethr =  1.89E-11,  avg # of iterations =  2.0

     negative rho (up, down):  7.574E-06 0.000E+00

     total cpu time spent up to now is       62.7 secs

     End of self-consistent calculation

          k = 0.0000 0.0000 0.0000 (  1774 PWs)   bands (ev):

   -21.6409 -18.3180 -16.1960 -16.1853 -16.1310 -15.9541 -15.8588 -14.6864
   -11.9338 -11.7019 -11.5070 -11.4801  -9.7997  -9.5903  -9.0861  -9.0150
    -8.8116  -8.6951  -8.6723  -8.5812  -6.5069  -5.7389  -5.4115  -5.2385
    -5.0758  -5.0151  -4.7385  -4.7229  -3.8510  -3.7566  -3.7549  -3.6103
    -3.5419  -2.3100  -2.2760  -2.0884  -1.2564  -0.3041   0.6813   1.3923
     2.0854   3.7533   4.1421   5.6740   5.9615   6.0625   6.1320

     the Fermi energy is     0.8066 ev

!    total energy              =    -236.28084368 Ry
     Harris-Foulkes estimate   =    -236.28084368 Ry
     estimated scf accuracy    <          4.4E-10 Ry

     The total energy is the sum of the following terms:

     one-electron contribution =    -551.77083505 Ry
     hartree contribution      =     297.87331679 Ry
     xc contribution           =     -70.20193628 Ry
     ewald contribution        =      87.81697987 Ry
     smearing contrib. (-TS)   =       0.00163099 Ry

     convergence has been achieved in   9 iterations

     Forces acting on atoms (cartesian axes, Ry/au):

     atom    1 type  1   force =    -0.00353548    0.00267920   -0.00254163
     atom    2 type  1   force =    -0.01408676    0.00762878   -0.00247118
     atom    3 type  1   force =     0.00007832    0.00340961   -0.01741393
     atom    4 type  1   force =     0.00329141    0.00282139   -0.00248596
     atom    5 type  1   force =    -0.00003873    0.01060701    0.00223049
     atom    6 type  1   force =     0.01356479    0.01177351    0.01857043
     atom    7 type  1   force =    -0.00010848    0.00657131   -0.00989185
     atom    8 type  1   force =     0.01394733    0.00771378   -0.00243188
     atom    9 type  1   force =    -0.01276015    0.01145231    0.01860376
     atom   10 type  1   force =     0.01206882   -0.01129015    0.01837374
     atom   11 type  1   force =    -0.01475595   -0.00814957   -0.00242951
     atom   12 type  1   force =     0.00011325   -0.00701072   -0.00989488
     atom   13 type  1   force =    -0.01262391   -0.01144763    0.01849173
     atom   14 type  1   force =    -0.00000327   -0.01038783    0.00228866
     atom   15 type  1   force =    -0.00330227   -0.00281940   -0.00245601
     atom   16 type  1   force =    -0.00008597   -0.00313646   -0.01740438
     atom   17 type  1   force =     0.01469996   -0.00779274   -0.00240498
     atom   18 type  1   force =     0.00355213   -0.00268498   -0.00244551
     atom   19 type  2   force =    -0.00001504    0.00006258   -0.00428709

     Total force =     0.070089     Total SCF correction =     0.000042

     number of scf cycles    =   7
     number of bfgs steps    =   6

     energy   old            =    -236.2768175668 Ry
     energy   new            =    -236.2808436774 Ry

     CASE: energy  _new < energy  _old

     new trust radius        =       0.1409200739 bohr
     new conv_thr            =       0.0000000019 Ry


ATOMIC_POSITIONS (angstrom)
C       -0.015258094  -0.014050627  -0.063635008
C       -1.211557840   2.112012649  -0.070463671
C       -2.463411601   4.285761983  -0.073648384
C        2.478178623  -0.014302774  -0.063509943
C        1.231550064   2.122135030   0.271521792
C       -0.030436493   4.258476079  -0.014611057
C        4.925974676   0.013230314  -0.046305227
C        3.675250056   2.112204223  -0.070283102
C        2.492218619   4.258692715  -0.014482805
C       -0.029395741   1.429070383  -0.015440368
C       -1.212704295   3.575339742  -0.070300799
C       -2.462934270   5.674693136  -0.046294666
C        2.493427201   1.429251035  -0.014867838
C        1.231127630   3.564958045   0.272025981
C       -0.015555059   5.702122691  -0.063477260
C        4.926405882   1.402344927  -0.073592298
C        3.674687653   3.575586088  -0.070303052
C        2.478652320   5.702121294  -0.063435473
O        1.230358510   2.842437606   1.601103179



     Writing output data file Graphene3x3-O_PBE.save/
     NEW-OLD atomic charge density approx. for the potential

     negative rho (up, down):  1.285E-05 0.000E+00

     total cpu time spent up to now is       63.6 secs

     Self-consistent Calculation

     iteration #  1     ecut=    20.00 Ry     beta= 0.70
     Davidson diagonalization with overlap
     ethr =  1.00E-06,  avg # of iterations =  8.0

     negative rho (up, down):  7.337E-06 0.000E+00

     total cpu time spent up to now is       64.9 secs

     total energy              =    -236.28326935 Ry
     Harris-Foulkes estimate   =    -236.28811963 Ry
     estimated scf accuracy    <       0.01163473 Ry

     iteration #  2     ecut=    20.00 Ry     beta= 0.70
     Davidson diagonalization with overlap
     ethr =  1.49E-05,  avg # of iterations =  3.0

     negative rho (up, down):  4.767E-05 0.000E+00

     total cpu time spent up to now is       65.7 secs

     total energy              =    -236.28375750 Ry
     Harris-Foulkes estimate   =    -236.28664455 Ry
     estimated scf accuracy    <       0.00518320 Ry

     iteration #  3     ecut=    20.00 Ry     beta= 0.70
     Davidson diagonalization with overlap
     ethr =  6.65E-06,  avg # of iterations =  3.0

     negative rho (up, down):  4.992E-05 0.000E+00

     total cpu time spent up to now is       66.6 secs

     total energy              =    -236.28482546 Ry
     Harris-Foulkes estimate   =    -236.28646774 Ry
     estimated scf accuracy    <       0.00414516 Ry

     iteration #  4     ecut=    20.00 Ry     beta= 0.70
     Davidson diagonalization with overlap
     ethr =  5.31E-06,  avg # of iterations =  2.0

     negative rho (up, down):  7.582E-06 0.000E+00

     total cpu time spent up to now is       67.3 secs

     total energy              =    -236.28561959 Ry
     Harris-Foulkes estimate   =    -236.28567580 Ry
     estimated scf accuracy    <       0.00014218 Ry

     iteration #  5     ecut=    20.00 Ry     beta= 0.70
     Davidson diagonalization with overlap
     ethr =  1.82E-07,  avg # of iterations =  2.0

     negative rho (up, down):  6.727E-06 0.000E+00

     total cpu time spent up to now is       68.2 secs

     total energy              =    -236.28564562 Ry
     Harris-Foulkes estimate   =    -236.28566864 Ry
     estimated scf accuracy    <       0.00005168 Ry

     iteration #  6     ecut=    20.00 Ry     beta= 0.70
     Davidson diagonalization with overlap
     ethr =  6.63E-08,  avg # of iterations =  2.0

     negative rho (up, down):  6.637E-06 0.000E+00

     total cpu time spent up to now is       69.0 secs

     total energy              =    -236.28565675 Ry
     Harris-Foulkes estimate   =    -236.28565869 Ry
     estimated scf accuracy    <       0.00000471 Ry

     iteration #  7     ecut=    20.00 Ry     beta= 0.70
     Davidson diagonalization with overlap
     ethr =  6.04E-09,  avg # of iterations =  2.0

     negative rho (up, down):  6.643E-06 0.000E+00

     total cpu time spent up to now is       69.7 secs

     total energy              =    -236.28565765 Ry
     Harris-Foulkes estimate   =    -236.28565767 Ry
     estimated scf accuracy    <       0.00000005 Ry

     iteration #  8     ecut=    20.00 Ry     beta= 0.70
     Davidson diagonalization with overlap
     ethr =  6.58E-11,  avg # of iterations =  3.0

     negative rho (up, down):  6.642E-06 0.000E+00

     total cpu time spent up to now is       70.7 secs

     total energy              =    -236.28565767 Ry
     Harris-Foulkes estimate   =    -236.28565768 Ry
     estimated scf accuracy    <       0.00000001 Ry

     iteration #  9     ecut=    20.00 Ry     beta= 0.70
     Davidson diagonalization with overlap
     ethr =  1.34E-11,  avg # of iterations =  2.0

     negative rho (up, down):  6.642E-06 0.000E+00

     total cpu time spent up to now is       71.6 secs

     total energy              =    -236.28565767 Ry
     Harris-Foulkes estimate   =    -236.28565767 Ry
     estimated scf accuracy    <          2.3E-09 Ry

     iteration # 10     ecut=    20.00 Ry     beta= 0.70
     Davidson diagonalization with overlap
     ethr =  2.99E-12,  avg # of iterations =  2.0

     negative rho (up, down):  6.642E-06 0.000E+00

     total cpu time spent up to now is       72.4 secs

     End of self-consistent calculation

          k = 0.0000 0.0000 0.0000 (  1774 PWs)   bands (ev):

   -21.5837 -18.3304 -16.1945 -16.1816 -16.0749 -15.9196 -15.8612 -14.7553
   -11.8835 -11.7008 -11.5308 -11.4901  -9.7738  -9.5808  -9.0572  -9.0426
    -8.8195  -8.6970  -8.6382  -8.5747  -6.5110  -5.7996  -5.3981  -5.1979
    -5.0726  -5.0211  -4.7220  -4.7158  -3.8790  -3.7782  -3.7529  -3.5466
    -3.5205  -2.3615  -2.2504  -2.1476  -1.3256  -0.3264   0.7248   1.3833
     2.0579   3.6468   4.1594   5.6502   5.9514   6.0105   6.0836

     the Fermi energy is     0.8502 ev

!    total energy              =    -236.28565767 Ry
     Harris-Foulkes estimate   =    -236.28565767 Ry
     estimated scf accuracy    <          1.1E-09 Ry

     The total energy is the sum of the following terms:

     one-electron contribution =    -546.79516072 Ry
     hartree contribution      =     295.35404843 Ry
     xc contribution           =     -70.14672766 Ry
     ewald contribution        =      85.30055129 Ry
     smearing contrib. (-TS)   =       0.00163099 Ry

     convergence has been achieved in  10 iterations

     Forces acting on atoms (cartesian axes, Ry/au):

     atom    1 type  1   force =     0.00574510    0.00460339    0.00524418
     atom    2 type  1   force =     0.00049412    0.00108909    0.00239535
     atom    3 type  1   force =     0.00010140   -0.00575221   -0.01958478
     atom    4 type  1   force =    -0.00501843    0.00485896    0.00528499
     atom    5 type  1   force =     0.00007415   -0.00917272   -0.00484393
     atom    6 type  1   force =    -0.00440711    0.00446005    0.01517944
     atom    7 type  1   force =     0.00027142   -0.00299269   -0.01308693
     atom    8 type  1   force =    -0.00077118    0.00112276    0.00244508
     atom    9 type  1   force =     0.00509890    0.00435070    0.01520253
     atom   10 type  1   force =    -0.00437523   -0.00466739    0.01509891
     atom   11 type  1   force =     0.00134642   -0.00057307    0.00248431
     atom   12 type  1   force =    -0.00021583    0.00334686   -0.01311396
     atom   13 type  1   force =     0.00373671   -0.00482477    0.01518481
     atom   14 type  1   force =    -0.00012297    0.00931119   -0.00477030
     atom   15 type  1   force =     0.00511467   -0.00498400    0.00534843
     atom   16 type  1   force =    -0.00021919    0.00508546   -0.01960020
     atom   17 type  1   force =    -0.00100646   -0.00050995    0.00253952
     atom   18 type  1   force =    -0.00589652   -0.00483385    0.00538019
     atom   19 type  2   force =     0.00005005    0.00008218   -0.01678765

     Total force =     0.055927     Total SCF correction =     0.000057

     number of scf cycles    =   8
     number of bfgs steps    =   7

     energy   old            =    -236.2808436774 Ry
     energy   new            =    -236.2856576725 Ry

     CASE: energy  _new < energy  _old

     new trust radius        =       0.0567547682 bohr
     new conv_thr            =       0.0000000020 Ry


ATOMIC_POSITIONS (angstrom)
C       -0.013959570  -0.012758790  -0.069552282
C       -1.211558810   2.112634401  -0.077744585
C       -2.463379526   4.282310790  -0.103482746
C        2.477165330  -0.012812459  -0.069360806
C        1.231550167   2.117593222   0.288902428
C       -0.030669218   4.260076085   0.008981905
C        4.926112004   0.011128992  -0.063357142
C        3.675100110   2.112912818  -0.077493016
C        2.492843397   4.260317421   0.009175977
C       -0.029712738   1.427309269   0.007909958
C       -1.212306066   3.574819581  -0.077485789
C       -2.463009559   5.676982590  -0.063360553
C        2.493412080   1.427494561   0.008658651
C        1.231073985   3.569554444   0.289558549
C       -0.014495579   5.700618685  -0.069273148
C        4.926333610   1.405511744  -0.103420962
C        3.674455876   3.575197880  -0.077446592
C        2.477337237   5.700787830  -0.069201001
O        1.230285110   2.842405475   1.617991154



     Writing output data file Graphene3x3-O_PBE.save/
     NEW-OLD atomic charge density approx. for the potential

     negative rho (up, down):  9.416E-06 0.000E+00

     total cpu time spent up to now is       73.4 secs

     Self-consistent Calculation

     iteration #  1     ecut=    20.00 Ry     beta= 0.70
     Davidson diagonalization with overlap
     ethr =  1.00E-06,  avg # of iterations =  7.0

     negative rho (up, down):  7.478E-06 0.000E+00

     total cpu time spent up to now is       74.5 secs

     total energy              =    -236.28869378 Ry
     Harris-Foulkes estimate   =    -236.28995878 Ry
     estimated scf accuracy    <       0.00256131 Ry

     iteration #  2     ecut=    20.00 Ry     beta= 0.70
     Davidson diagonalization with overlap
     ethr =  3.28E-06,  avg # of iterations =  3.0

     negative rho (up, down):  8.100E-06 0.000E+00

     total cpu time spent up to now is       75.3 secs

     total energy              =    -236.28910857 Ry
     Harris-Foulkes estimate   =    -236.28925352 Ry
     estimated scf accuracy    <       0.00027819 Ry

     iteration #  3     ecut=    20.00 Ry     beta= 0.70
     Davidson diagonalization with overlap
     ethr =  3.57E-07,  avg # of iterations =  3.0

     negative rho (up, down):  9.039E-06 0.000E+00

     total cpu time spent up to now is       76.2 secs

     total energy              =    -236.28912606 Ry
     Harris-Foulkes estimate   =    -236.28925613 Ry
     estimated scf accuracy    <       0.00029165 Ry

     iteration #  4     ecut=    20.00 Ry     beta= 0.70
     Davidson diagonalization with overlap
     ethr =  3.57E-07,  avg # of iterations =  2.0

     negative rho (up, down):  7.040E-06 0.000E+00

     total cpu time spent up to now is       77.0 secs

     total energy              =    -236.28919264 Ry
     Harris-Foulkes estimate   =    -236.28920459 Ry
     estimated scf accuracy    <       0.00003517 Ry

     iteration #  5     ecut=    20.00 Ry     beta= 0.70
     Davidson diagonalization with overlap
     ethr =  4.51E-08,  avg # of iterations =  2.0

     negative rho (up, down):  6.944E-06 0.000E+00

     total cpu time spent up to now is       77.8 secs

     total energy              =    -236.28919809 Ry
     Harris-Foulkes estimate   =    -236.28920059 Ry
     estimated scf accuracy    <       0.00000533 Ry

     iteration #  6     ecut=    20.00 Ry     beta= 0.70
     Davidson diagonalization with overlap
     ethr =  6.84E-09,  avg # of iterations =  2.0

     negative rho (up, down):  6.925E-06 0.000E+00

     total cpu time spent up to now is       78.6 secs

     total energy              =    -236.28919921 Ry
     Harris-Foulkes estimate   =    -236.28919939 Ry
     estimated scf accuracy    <       0.00000039 Ry

     iteration #  7     ecut=    20.00 Ry     beta= 0.70
     Davidson diagonalization with overlap
     ethr =  4.96E-10,  avg # of iterations =  3.0

     negative rho (up, down):  6.924E-06 0.000E+00

     total cpu time spent up to now is       79.4 secs

     total energy              =    -236.28919930 Ry
     Harris-Foulkes estimate   =    -236.28919932 Ry
     estimated scf accuracy    <       0.00000005 Ry

     iteration #  8     ecut=    20.00 Ry     beta= 0.70
     Davidson diagonalization with overlap
     ethr =  5.93E-11,  avg # of iterations =  3.0

     negative rho (up, down):  6.918E-06 0.000E+00

     total cpu time spent up to now is       80.3 secs

     total energy              =    -236.28919931 Ry
     Harris-Foulkes estimate   =    -236.28919931 Ry
     estimated scf accuracy    <          6.8E-09 Ry

     iteration #  9     ecut=    20.00 Ry     beta= 0.70
     Davidson diagonalization with overlap
     ethr =  8.71E-12,  avg # of iterations =  2.0

     negative rho (up, down):  6.918E-06 0.000E+00

     total cpu time spent up to now is       81.1 secs

     End of self-consistent calculation

          k = 0.0000 0.0000 0.0000 (  1774 PWs)   bands (ev):

   -21.5539 -18.3284 -16.1770 -16.1751 -16.0702 -15.9446 -15.8741 -14.7483
   -11.8738 -11.7289 -11.5181 -11.5006  -9.7688  -9.5850  -9.0554  -9.0096
    -8.8273  -8.7173  -8.6695  -8.5929  -6.5095  -5.7694  -5.3995  -5.2010
    -5.0641  -5.0032  -4.7372  -4.7341  -3.8805  -3.7789  -3.7612  -3.5556
    -3.5446  -2.3811  -2.2746  -2.1374  -1.3237  -0.3081   0.7395   1.3685
     2.0326   3.6663   4.1718   5.6421   5.9085   6.0038   6.0685

     the Fermi energy is     0.8648 ev

!    total energy              =    -236.28919931 Ry
     Harris-Foulkes estimate   =    -236.28919931 Ry
     estimated scf accuracy    <          2.3E-10 Ry

     The total energy is the sum of the following terms:

     one-electron contribution =    -545.57937643 Ry
     hartree contribution      =     294.73155225 Ry
     xc contribution           =     -70.13008266 Ry
     ewald contribution        =      84.68707654 Ry
     smearing contrib. (-TS)   =       0.00163099 Ry

     convergence has been achieved in   9 iterations

     Forces acting on atoms (cartesian axes, Ry/au):

     atom    1 type  1   force =    -0.00060972   -0.00036568    0.00807755
     atom    2 type  1   force =     0.00463859   -0.00070111    0.00378065
     atom    3 type  1   force =     0.00026774    0.00697433   -0.01448299
     atom    4 type  1   force =     0.00020572   -0.00067252    0.00812379
     atom    5 type  1   force =    -0.00034566    0.00325989    0.00242362
     atom    6 type  1   force =    -0.00766017    0.00155729    0.00440175
     atom    7 type  1   force =    -0.00033097    0.00647257   -0.01214074
     atom    8 type  1   force =    -0.00507772   -0.00084487    0.00383773
     atom    9 type  1   force =     0.00721819    0.00168837    0.00453938
     atom   10 type  1   force =    -0.00780735   -0.00127240    0.00442576
     atom   11 type  1   force =     0.00444719    0.00060748    0.00381328
     atom   12 type  1   force =     0.00023536   -0.00717462   -0.01223095
     atom   13 type  1   force =     0.00810841   -0.00113243    0.00436715
     atom   14 type  1   force =     0.00043104   -0.00317289    0.00246378
     atom   15 type  1   force =    -0.00015582    0.00056262    0.00818164
     atom   16 type  1   force =    -0.00022982   -0.00636144   -0.01454732
     atom   17 type  1   force =    -0.00398555    0.00034024    0.00386397
     atom   18 type  1   force =     0.00062575    0.00017140    0.00819083
     atom   19 type  2   force =     0.00002479    0.00006377   -0.01708889

     Total force =     0.044279     Total SCF correction =     0.000030

     number of scf cycles    =   9
     number of bfgs steps    =   8

     energy   old            =    -236.2856576725 Ry
     energy   new            =    -236.2891993101 Ry

     CASE: energy  _new < energy  _old

     new trust radius        =       0.0652433234 bohr
     new conv_thr            =       0.0000000017 Ry


ATOMIC_POSITIONS (angstrom)
C       -0.013047792  -0.013970347  -0.068291711
C       -1.211029322   2.113387240  -0.080569328
C       -2.463083320   4.283431628  -0.137950519
C        2.476199456  -0.014269271  -0.068012525
C        1.231151083   2.116844116   0.303321157
C       -0.034117134   4.263356028   0.031429593
C        4.925934568   0.011753662  -0.085891437
C        3.674053983   2.113589931  -0.080215439
C        2.496008064   4.263778673   0.031811587
C       -0.033282875   1.424163101   0.030194659
C       -1.211630650   3.573973866  -0.080216133
C       -2.462864188   5.675905737  -0.085982018
C        2.497136526   1.424533880   0.031018136
C        1.231530655   3.570374701   0.304130689
C       -0.013482785   5.701980817  -0.067840158
C        4.926071566   1.404810701  -0.137938129
C        3.674311478   3.574161412  -0.080109986
C        2.476468118   5.701832875  -0.067736344
O        1.230250409   2.842445787   1.618847907



     Writing output data file Graphene3x3-O_PBE.save/
     NEW-OLD atomic charge density approx. for the potential

     negative rho (up, down):  7.201E-06 0.000E+00

     total cpu time spent up to now is       82.0 secs

     Self-consistent Calculation

     iteration #  1     ecut=    20.00 Ry     beta= 0.70
     Davidson diagonalization with overlap
     ethr =  1.00E-06,  avg # of iterations =  7.0

     negative rho (up, down):  5.789E-06 0.000E+00

     total cpu time spent up to now is       83.1 secs

     total energy              =    -236.29112137 Ry
     Harris-Foulkes estimate   =    -236.29237511 Ry
     estimated scf accuracy    <       0.00244345 Ry

     iteration #  2     ecut=    20.00 Ry     beta= 0.70
     Davidson diagonalization with overlap
     ethr =  3.13E-06,  avg # of iterations =  3.0

     negative rho (up, down):  6.085E-06 0.000E+00

     total cpu time spent up to now is       83.9 secs

     total energy              =    -236.29151152 Ry
     Harris-Foulkes estimate   =    -236.29167635 Ry
     estimated scf accuracy    <       0.00028903 Ry

     iteration #  3     ecut=    20.00 Ry     beta= 0.70
     Davidson diagonalization with overlap
     ethr =  3.71E-07,  avg # of iterations =  3.0

     negative rho (up, down):  6.536E-06 0.000E+00

     total cpu time spent up to now is       84.8 secs

     total energy              =    -236.29156592 Ry
     Harris-Foulkes estimate   =    -236.29164950 Ry
     estimated scf accuracy    <       0.00017401 Ry

     iteration #  4     ecut=    20.00 Ry     beta= 0.70
     Davidson diagonalization with overlap
     ethr =  2.23E-07,  avg # of iterations =  2.0

     negative rho (up, down):  5.362E-06 0.000E+00

[...]
     atom   11 type  1   force =     0.00165763    0.00078169   -0.00041578
     atom   12 type  1   force =     0.00050034    0.00029036    0.00091891
     atom   13 type  1   force =     0.00119619    0.00011439    0.00026027
     atom   14 type  1   force =     0.00029266   -0.00019344    0.00085403
     atom   15 type  1   force =     0.00017014    0.00042815   -0.00019602
     atom   16 type  1   force =     0.00039873   -0.00120311    0.00016283
     atom   17 type  1   force =    -0.00054234    0.00058720   -0.00062538
     atom   18 type  1   force =     0.00072397    0.00018678   -0.00017426
     atom   19 type  2   force =    -0.00003340   -0.00009503   -0.00194262

     Total force =     0.004968     Total SCF correction =     0.000023

     number of scf cycles    =  19
     number of bfgs steps    =  18

     energy   old            =    -236.2926566083 Ry
     energy   new            =    -236.2927637029 Ry

     CASE: energy  _new < energy  _old

     new trust radius        =       0.0124145877 bohr
     new conv_thr            =       0.0000000001 Ry


ATOMIC_POSITIONS (angstrom)
C       -0.013841809  -0.014394272  -0.027919983
C       -1.208871719   2.111931454  -0.115175003
C       -2.463099846   4.283835494  -0.174537757
C        2.476713971  -0.014622621  -0.027531896
C        1.231192210   2.116855821   0.309008841
C       -0.034278325   4.261776144   0.033751831
C        4.925949821   0.014022005  -0.074707655
C        3.671581152   2.111936371  -0.114316873
C        2.496965331   4.261920191   0.034918113
C       -0.033464769   1.425764996   0.031139354
C       -1.208530189   3.575969617  -0.114190244
C       -2.462889889   5.674147735  -0.076233482
C        2.496767100   1.425804840   0.032301038
C        1.231471288   3.570553314   0.310729143
C       -0.014161735   5.702521825  -0.026125432
C        4.926081450   1.403755903  -0.174984065
C        3.671712479   3.576000427  -0.113210035
C        2.477270048   5.702438385  -0.025935806
O        1.230011269   2.841866913   1.623019911



     Writing output data file Graphene3x3-O_PBE.save/
     NEW-OLD atomic charge density approx. for the potential

     negative rho (up, down):  4.636E-06 0.000E+00

     total cpu time spent up to now is      167.6 secs

     Self-consistent Calculation

     iteration #  1     ecut=    20.00 Ry     beta= 0.70
     Davidson diagonalization with overlap
     ethr =  1.00E-06,  avg # of iterations =  3.0

     negative rho (up, down):  4.614E-06 0.000E+00

     total cpu time spent up to now is      168.5 secs

     total energy              =    -236.29273988 Ry
     Harris-Foulkes estimate   =    -236.29284642 Ry
     estimated scf accuracy    <       0.00019291 Ry

     iteration #  2     ecut=    20.00 Ry     beta= 0.70
     Davidson diagonalization with overlap
     ethr =  2.47E-07,  avg # of iterations =  3.0

     negative rho (up, down):  4.597E-06 0.000E+00

     total cpu time spent up to now is      169.3 secs

     total energy              =    -236.29277912 Ry
     Harris-Foulkes estimate   =    -236.29278870 Ry
     estimated scf accuracy    <       0.00001853 Ry

     iteration #  3     ecut=    20.00 Ry     beta= 0.70
     Davidson diagonalization with overlap
     ethr =  2.38E-08,  avg # of iterations =  2.0

     negative rho (up, down):  4.631E-06 0.000E+00

     total cpu time spent up to now is      170.2 secs

     total energy              =    -236.29278120 Ry
     Harris-Foulkes estimate   =    -236.29278505 Ry
     estimated scf accuracy    <       0.00000740 Ry

     iteration #  4     ecut=    20.00 Ry     beta= 0.70
     Davidson diagonalization with overlap
     ethr =  9.49E-09,  avg # of iterations =  3.0

     negative rho (up, down):  4.605E-06 0.000E+00

     total cpu time spent up to now is      171.0 secs

     total energy              =    -236.29278309 Ry
     Harris-Foulkes estimate   =    -236.29278441 Ry
     estimated scf accuracy    <       0.00000373 Ry

     iteration #  5     ecut=    20.00 Ry     beta= 0.70
     Davidson diagonalization with overlap
     ethr =  4.78E-09,  avg # of iterations =  2.0

     negative rho (up, down):  4.606E-06 0.000E+00

     total cpu time spent up to now is      171.8 secs

     total energy              =    -236.29278368 Ry
     Harris-Foulkes estimate   =    -236.29278374 Ry
     estimated scf accuracy    <       0.00000016 Ry

     iteration #  6     ecut=    20.00 Ry     beta= 0.70
     Davidson diagonalization with overlap
     ethr =  2.01E-10,  avg # of iterations =  2.0

     negative rho (up, down):  4.611E-06 0.000E+00

     total cpu time spent up to now is      172.6 secs

     total energy              =    -236.29278372 Ry
     Harris-Foulkes estimate   =    -236.29278373 Ry
     estimated scf accuracy    <       0.00000001 Ry

     iteration #  7     ecut=    20.00 Ry     beta= 0.70
     Davidson diagonalization with overlap
     ethr =  1.78E-11,  avg # of iterations =  2.0

     negative rho (up, down):  4.611E-06 0.000E+00

     total cpu time spent up to now is      173.4 secs

     total energy              =    -236.29278372 Ry
     Harris-Foulkes estimate   =    -236.29278372 Ry
     estimated scf accuracy    <          1.1E-09 Ry

     iteration #  8     ecut=    20.00 Ry     beta= 0.70
     Davidson diagonalization with overlap
     ethr =  1.39E-12,  avg # of iterations =  2.0

     negative rho (up, down):  4.611E-06 0.000E+00

     total cpu time spent up to now is      174.2 secs

     total energy              =    -236.29278372 Ry
     Harris-Foulkes estimate   =    -236.29278372 Ry
     estimated scf accuracy    <          5.4E-10 Ry

     iteration #  9     ecut=    20.00 Ry     beta= 0.70
     Davidson diagonalization with overlap
     ethr =  6.93E-13,  avg # of iterations =  2.0

     negative rho (up, down):  4.611E-06 0.000E+00

     total cpu time spent up to now is      175.0 secs

     End of self-consistent calculation

          k = 0.0000 0.0000 0.0000 (  1774 PWs)   bands (ev):

   -21.7426 -18.3264 -16.1803 -16.1703 -16.0571 -15.9284 -15.8487 -14.7144
   -11.8630 -11.7147 -11.5179 -11.4913  -9.7605  -9.5684  -9.0866  -9.0065
    -8.8154  -8.7101  -8.6722  -8.5895  -6.4879  -5.7730  -5.4335  -5.2847
    -5.0562  -5.0083  -4.7075  -4.6948  -3.8778  -3.8344  -3.7490  -3.5805
    -3.5265  -2.3924  -2.2361  -2.0611  -1.3442  -0.3782   0.7107   1.4126
     2.0650   3.7143   4.1499   5.5852   5.8431   6.0165   6.0453

     the Fermi energy is     0.8360 ev

!    total energy              =    -236.29278372 Ry
     Harris-Foulkes estimate   =    -236.29278372 Ry
     estimated scf accuracy    <          3.7E-11 Ry

     The total energy is the sum of the following terms:

     one-electron contribution =    -544.64630963 Ry
     hartree contribution      =     294.24868176 Ry
     xc contribution           =     -70.12032508 Ry
     ewald contribution        =      84.22353825 Ry
     smearing contrib. (-TS)   =       0.00163099 Ry

     convergence has been achieved in   9 iterations

     Forces acting on atoms (cartesian axes, Ry/au):

     atom    1 type  1   force =     0.00009551   -0.00046143   -0.00017894
     atom    2 type  1   force =     0.00129905   -0.00026698    0.00020357
     atom    3 type  1   force =     0.00042915    0.00162932    0.00006826
     atom    4 type  1   force =     0.00052912   -0.00037696   -0.00021297
     atom    5 type  1   force =     0.00010144   -0.00089203    0.00016124
     atom    6 type  1   force =     0.00093500    0.00027320    0.00015016
     atom    7 type  1   force =     0.00028305   -0.00018861    0.00022752
     atom    8 type  1   force =    -0.00032767   -0.00019397    0.00006543
     atom    9 type  1   force =    -0.00026052   -0.00005860   -0.00001090
     atom   10 type  1   force =    -0.00096382    0.00093801   -0.00012025
     atom   11 type  1   force =    -0.00106208   -0.00069094   -0.00005230
     atom   12 type  1   force =    -0.00030980   -0.00088797    0.00017959
     atom   13 type  1   force =     0.00043540    0.00073270   -0.00000506
     atom   14 type  1   force =    -0.00015627    0.00068526    0.00020794
     atom   15 type  1   force =    -0.00052998    0.00024374   -0.00026417
     atom   16 type  1   force =    -0.00040850   -0.00033191    0.00008623
     atom   17 type  1   force =    -0.00003688   -0.00043523   -0.00001784
     atom   18 type  1   force =    -0.00001836    0.00033189   -0.00022611
     atom   19 type  2   force =    -0.00003385   -0.00004948   -0.00026143

     Total force =     0.003780     Total SCF correction =     0.000015

     number of scf cycles    =  20
     number of bfgs steps    =  19

     energy   old            =    -236.2927637029 Ry
     energy   new            =    -236.2927837232 Ry

     CASE: energy  _new < energy  _old

     new trust radius        =       0.0016382986 bohr
     new conv_thr            =            1.0E-10 Ry


ATOMIC_POSITIONS (angstrom)
C       -0.013791912  -0.014505772  -0.028713579
C       -1.208595208   2.111957168  -0.114365124
C       -2.462962952   4.284319447  -0.173940034
C        2.476855209  -0.014717178  -0.028341668
C        1.231212049   2.116460840   0.308971759
C       -0.034020637   4.261895236   0.033764538
C        4.926028744   0.013960011  -0.074972489
C        3.671591354   2.111971182  -0.113562664
C        2.496882446   4.261952053   0.034859907
C       -0.033676608   1.425962818   0.031095665
C       -1.208895661   3.575696977  -0.113465558
C       -2.462978127   5.673963060  -0.076479174
C        2.496865100   1.425966547   0.032286627
C        1.231427380   3.570876729   0.310699510
C       -0.014290638   5.702562594  -0.026981776
C        4.925952997   1.403600439  -0.174361393
C        3.671728752   3.575816582  -0.112502705
C        2.477243940   5.702495137  -0.026777371
O        1.230001612   2.841850670   1.622785529



     Writing output data file Graphene3x3-O_PBE.save/
     NEW-OLD atomic charge density approx. for the potential

     negative rho (up, down):  4.591E-06 0.000E+00

     total cpu time spent up to now is      176.0 secs

     Self-consistent Calculation

     iteration #  1     ecut=    20.00 Ry     beta= 0.70
     Davidson diagonalization with overlap
     ethr =  1.00E-06,  avg # of iterations =  2.0

     Threshold (ethr) on eigenvalues was too large:
     Diagonalizing with lowered threshold

     Davidson diagonalization with overlap
     ethr =  5.37E-09,  avg # of iterations =  3.0

     negative rho (up, down):  4.603E-06 0.000E+00

     total cpu time spent up to now is      177.3 secs

     total energy              =    -236.29278668 Ry
     Harris-Foulkes estimate   =    -236.29278926 Ry
     estimated scf accuracy    <       0.00000448 Ry

     iteration #  2     ecut=    20.00 Ry     beta= 0.70
     Davidson diagonalization with overlap
     ethr =  5.74E-09,  avg # of iterations =  3.0

     negative rho (up, down):  4.613E-06 0.000E+00

     total cpu time spent up to now is      178.1 secs

     total energy              =    -236.29278740 Ry
     Harris-Foulkes estimate   =    -236.29278797 Ry
     estimated scf accuracy    <       0.00000094 Ry

     iteration #  3     ecut=    20.00 Ry     beta= 0.70
     Davidson diagonalization with overlap
     ethr =  1.20E-09,  avg # of iterations =  2.0

     negative rho (up, down):  4.618E-06 0.000E+00

     total cpu time spent up to now is      179.0 secs

     total energy              =    -236.29278758 Ry
     Harris-Foulkes estimate   =    -236.29278785 Ry
     estimated scf accuracy    <       0.00000061 Ry

     iteration #  4     ecut=    20.00 Ry     beta= 0.70
     Davidson diagonalization with overlap
     ethr =  7.82E-10,  avg # of iterations =  2.0

     negative rho (up, down):  4.611E-06 0.000E+00

     total cpu time spent up to now is      179.8 secs

     total energy              =    -236.29278771 Ry
     Harris-Foulkes estimate   =    -236.29278774 Ry
     estimated scf accuracy    <       0.00000006 Ry

     iteration #  5     ecut=    20.00 Ry     beta= 0.70
     Davidson diagonalization with overlap
     ethr =  8.17E-11,  avg # of iterations =  2.0

     negative rho (up, down):  4.608E-06 0.000E+00

     total cpu time spent up to now is      180.6 secs

     total energy              =    -236.29278773 Ry
     Harris-Foulkes estimate   =    -236.29278773 Ry
     estimated scf accuracy    <       0.00000001 Ry

     iteration #  6     ecut=    20.00 Ry     beta= 0.70
     Davidson diagonalization with overlap
     ethr =  1.82E-11,  avg # of iterations =  2.0

     negative rho (up, down):  4.608E-06 0.000E+00

     total cpu time spent up to now is      181.4 secs

     total energy              =    -236.29278773 Ry
     Harris-Foulkes estimate   =    -236.29278773 Ry
     estimated scf accuracy    <          1.1E-09 Ry

     iteration #  7     ecut=    20.00 Ry     beta= 0.70
     Davidson diagonalization with overlap
     ethr =  1.46E-12,  avg # of iterations =  2.0

     negative rho (up, down):  4.608E-06 0.000E+00

     total cpu time spent up to now is      182.2 secs

     total energy              =    -236.29278773 Ry
     Harris-Foulkes estimate   =    -236.29278773 Ry
     estimated scf accuracy    <          2.3E-10 Ry

     iteration #  8     ecut=    20.00 Ry     beta= 0.70
     Davidson diagonalization with overlap
     ethr =  2.97E-13,  avg # of iterations =  2.0

     negative rho (up, down):  4.608E-06 0.000E+00

     total cpu time spent up to now is      183.0 secs

     End of self-consistent calculation

          k = 0.0000 0.0000 0.0000 (  1774 PWs)   bands (ev):

   -21.7418 -18.3266 -16.1803 -16.1711 -16.0575 -15.9286 -15.8484 -14.7147
   -11.8634 -11.7147 -11.5174 -11.4915  -9.7608  -9.5681  -9.0868  -9.0057
    -8.8159  -8.7101  -8.6718  -8.5900  -6.4881  -5.7725  -5.4323  -5.2860
    -5.0561  -5.0090  -4.7075  -4.6951  -3.8768  -3.8335  -3.7499  -3.5809
    -3.5264  -2.3921  -2.2365  -2.0628  -1.3444  -0.3765   0.7111   1.4128
     2.0660   3.7140   4.1501   5.5848   5.8442   6.0174   6.0458

     the Fermi energy is     0.8364 ev

!    total energy              =    -236.29278773 Ry
     Harris-Foulkes estimate   =    -236.29278773 Ry
     estimated scf accuracy    <          2.2E-11 Ry

     The total energy is the sum of the following terms:

     one-electron contribution =    -544.67603068 Ry
     hartree contribution      =     294.26381881 Ry
     xc contribution           =     -70.12083654 Ry
     ewald contribution        =      84.23862970 Ry
     smearing contrib. (-TS)   =       0.00163099 Ry

     convergence has been achieved in   8 iterations

     Forces acting on atoms (cartesian axes, Ry/au):

     atom    1 type  1   force =    -0.00025674    0.00002714   -0.00006271
     atom    2 type  1   force =    -0.00026436   -0.00022966    0.00002489
     atom    3 type  1   force =    -0.00018618   -0.00017389   -0.00002590
     atom    4 type  1   force =     0.00000857    0.00003361   -0.00007708
     atom    5 type  1   force =    -0.00002983    0.00030934    0.00025002
     atom    6 type  1   force =    -0.00041747   -0.00020763   -0.00005392
     atom    7 type  1   force =    -0.00011696   -0.00003810    0.00007161
     atom    8 type  1   force =    -0.00003738   -0.00015339    0.00002491
     atom    9 type  1   force =     0.00005940   -0.00007857   -0.00005779
     atom   10 type  1   force =     0.00006584   -0.00009268   -0.00005369
     atom   11 type  1   force =     0.00030895    0.00039573    0.00008259
     atom   12 type  1   force =     0.00017953    0.00023255    0.00010786
     atom   13 type  1   force =     0.00015996   -0.00001683   -0.00005638
     atom   14 type  1   force =     0.00004952   -0.00028959    0.00031449
     atom   15 type  1   force =     0.00003073    0.00001339   -0.00011195
     atom   16 type  1   force =     0.00016658   -0.00001556    0.00005139
     atom   17 type  1   force =     0.00007494    0.00033870   -0.00003467
     atom   18 type  1   force =     0.00023350    0.00001879   -0.00009033
     atom   19 type  2   force =    -0.00002860   -0.00007334   -0.00030335

     Total force =     0.001272     Total SCF correction =     0.000008

     bfgs converged in  21 scf cycles and  20 bfgs steps
     (criteria: energy <  1.0E-04 Ry, force <  1.0E-03 Ry/Bohr)

     End of BFGS Geometry Optimization

     Final energy   =    -236.2927877286 Ry
Begin final coordinates

ATOMIC_POSITIONS (angstrom)
C       -0.013791912  -0.014505772  -0.028713579
C       -1.208595208   2.111957168  -0.114365124
C       -2.462962952   4.284319447  -0.173940034
C        2.476855209  -0.014717178  -0.028341668
C        1.231212049   2.116460840   0.308971759
C       -0.034020637   4.261895236   0.033764538
C        4.926028744   0.013960011  -0.074972489
C        3.671591354   2.111971182  -0.113562664
C        2.496882446   4.261952053   0.034859907
C       -0.033676608   1.425962818   0.031095665
C       -1.208895661   3.575696977  -0.113465558
C       -2.462978127   5.673963060  -0.076479174
C        2.496865100   1.425966547   0.032286627
C        1.231427380   3.570876729   0.310699510
C       -0.014290638   5.702562594  -0.026981776
C        4.925952997   1.403600439  -0.174361393
C        3.671728752   3.575816582  -0.112502705
C        2.477243940   5.702495137  -0.026777371
O        1.230001612   2.841850670   1.622785529
End final coordinates



     Writing output data file Graphene3x3-O_PBE.save/

     init_run     :      1.18s CPU      1.19s WALL (       1 calls)
     electrons    :    274.15s CPU    163.25s WALL (      21 calls)
     update_pot   :      8.75s CPU      7.15s WALL (      20 calls)
     forces       :     11.44s CPU      9.22s WALL (      21 calls)

     Called by init_run:
     wfcinit      :      0.19s CPU      0.15s WALL (       1 calls)
     potinit      :      0.26s CPU      0.27s WALL (       1 calls)
     hinit0       :      0.65s CPU      0.65s WALL (       1 calls)

     Called by electrons:
     c_bands      :    114.66s CPU     63.19s WALL (     196 calls)
     sum_band     :     82.58s CPU     38.40s WALL (     196 calls)
     v_of_rho     :     57.45s CPU     45.70s WALL (     211 calls)
     newd         :     14.87s CPU     14.93s WALL (     211 calls)
     mix_rho      :      7.23s CPU      3.82s WALL (     196 calls)

     Called by c_bands:
     init_us_2    :      1.44s CPU      0.89s WALL (     393 calls)
     regterg      :    112.28s CPU     60.95s WALL (     196 calls)

     Called by sum_band:
     sum_band:bec :      0.03s CPU      0.01s WALL (     196 calls)
     addusdens    :     48.54s CPU     21.13s WALL (     196 calls)

     Called by *egterg:
     h_psi        :     85.90s CPU     49.92s WALL (     702 calls)
     s_psi        :      5.07s CPU      1.68s WALL (     702 calls)
     g_psi        :      1.58s CPU      0.69s WALL (     505 calls)
     rdiaghg      :      7.08s CPU      3.65s WALL (     675 calls)

     Called by h_psi:
     h_psi:pot    :     85.59s CPU     49.74s WALL (     702 calls)
     h_psi:calbec :      3.84s CPU      1.55s WALL (     702 calls)
     vloc_psi     :     76.80s CPU     46.54s WALL (     702 calls)
     add_vuspsi   :      4.93s CPU      1.64s WALL (     702 calls)

     General routines
     calbec       :      5.77s CPU      2.34s WALL (     982 calls)
     fft          :     15.74s CPU     12.47s WALL (    2368 calls)
     ffts         :      1.39s CPU      0.99s WALL (     407 calls)
     fftw         :     74.48s CPU     43.62s WALL (   29484 calls)
     interpolate  :      2.03s CPU      2.05s WALL (     211 calls)

     Parallel routines

     PWSCF        :  4m58.83s CPU     3m 3.46s WALL


   This run was terminated on:  16:33:14  14Sep2019            

=------------------------------------------------------------------------------=
   JOB DONE.
=------------------------------------------------------------------------------=
