 ANIMSTEPS   7
 CRYSTAL 
 PRIMVEC 
  6.3501265031  0.0000000000  0.0000000000
  0.0000000000  3.1750632515  0.0000000000
  0.0000000000  0.0000000000  3.1750632515
 PRIMCOORD   1
    3  1
 H   -2.7910280644    0.0000000000    0.0000000000    0.0000313751    0.0000000000    0.0000000000
 H    0.0000000000    0.0000000000    0.0000000000    0.0000000000    0.0000000000    0.0000000000
 H    0.7888640597    0.0000000000    0.0000000000   -0.0004525096    0.0000000000    0.0000000000
 PRIMCOORD   2
    3  1
 H   -2.0907598948    0.0000000000    0.0000000000   -0.0037417816    0.0000000000    0.0000000000
 H    0.0000000000    0.0000000000    0.0000000000    0.0000000000    0.0000000000    0.0000000000
 H    0.7933729962    0.0000000000    0.0000000000   -0.0013658805    0.0000000000    0.0000000000
 PRIMCOORD   3
    3  1
 H   -1.4766552639    0.0000000000    0.0000000000   -0.0108648862    0.0000000000    0.0000000000
 H    0.0000000000    0.0000000000    0.0000000000    0.0000000000    0.0000000000    0.0000000000
 H    0.8168096693    0.0000000000    0.0000000000   -0.0005973313    0.0000000000    0.0000000000
 PRIMCOORD   4
    3  1
 H   -1.0040453139    0.0000000000    0.0000000000    0.0023221649    0.0000000000    0.0000000000
 H    0.0000000000    0.0000000000    0.0000000000    0.0000000000    0.0000000000    0.0000000000
 H    1.0040498995    0.0000000000    0.0000000000   -0.0023221649    0.0000000000    0.0000000000
 PRIMCOORD   5
    3  1
 H   -0.8168084395    0.0000000000    0.0000000000    0.0005967722    0.0000000000    0.0000000000
 H    0.0000000000    0.0000000000    0.0000000000   -0.0000000000    0.0000000000    0.0000000000
 H    1.4766606763    0.0000000000    0.0000000000    0.0108649217    0.0000000000    0.0000000000
 PRIMCOORD   6
    3  1
 H   -0.7933728272    0.0000000000    0.0000000000    0.0013657719    0.0000000000    0.0000000000
 H    0.0000000000    0.0000000000    0.0000000000   -0.0000000000    0.0000000000    0.0000000000
 H    2.0907648322    0.0000000000    0.0000000000    0.0037417287    0.0000000000    0.0000000000
 PRIMCOORD   7
    3  1
 H   -0.7888641116    0.0000000000    0.0000000000    0.0004531167    0.0000000000    0.0000000000
 H    0.0000000000    0.0000000000    0.0000000000   -0.0000000000    0.0000000000    0.0000000000
 H    2.7910312803    0.0000000000    0.0000000000   -0.0000316978    0.0000000000    0.0000000000
