 ANIMSTEPS   7
 CRYSTAL 
 PRIMVEC 
  6.3501265031  0.0000000000  0.0000000000
  0.0000000000  3.1750632515  0.0000000000
  0.0000000000  0.0000000000  3.1750632515
 PRIMCOORD   1
    3  1
 H   -2.7910280644    0.0000000000    0.0000000000    0.0000313751    0.0000000000    0.0000000000
 H    0.0000000000    0.0000000000    0.0000000000    0.0000000000    0.0000000000    0.0000000000
 H    0.7888640597    0.0000000000    0.0000000000   -0.0004525096    0.0000000000    0.0000000000
 PRIMCOORD   2
    3  1
 H   -2.0846717231    0.0000000000    0.0000000000   -0.0038145927    0.0000000000    0.0000000000
 H    0.0000000000    0.0000000000    0.0000000000    0.0000000000    0.0000000000    0.0000000000
 H    0.7930432092    0.0000000000    0.0000000000   -0.0009954010    0.0000000000    0.0000000000
 PRIMCOORD   3
    3  1
 H   -1.4735329875    0.0000000000    0.0000000000   -0.0107267941    0.0000000000    0.0000000000
 H    0.0000000000    0.0000000000    0.0000000000    0.0000000000    0.0000000000    0.0000000000
 H    0.8190968017    0.0000000000    0.0000000000   -0.0021751603    0.0000000000    0.0000000000
 PRIMCOORD   4
    3  1
 H   -0.9956547164    0.0000000000    0.0000000000   -0.0011286670    0.0000000000    0.0000000000
 H    0.0000000000    0.0000000000    0.0000000000    0.0000000000    0.0000000000    0.0000000000
 H    0.9956573577    0.0000000000    0.0000000000    0.0011286670    0.0000000000    0.0000000000
 PRIMCOORD   5
    3  1
 H   -0.8190962408    0.0000000000    0.0000000000    0.0021750042    0.0000000000    0.0000000000
 H    0.0000000000    0.0000000000    0.0000000000   -0.0000000000    0.0000000000    0.0000000000
 H    1.4735365536    0.0000000000    0.0000000000    0.0107267999    0.0000000000    0.0000000000
 PRIMCOORD   6
    3  1
 H   -0.7930431764    0.0000000000    0.0000000000    0.0009954040    0.0000000000    0.0000000000
 H    0.0000000000    0.0000000000    0.0000000000   -0.0000000000    0.0000000000    0.0000000000
 H    2.0846750720    0.0000000000    0.0000000000    0.0038145577    0.0000000000    0.0000000000
 PRIMCOORD   7
    3  1
 H   -0.7888641116    0.0000000000    0.0000000000    0.0004531167    0.0000000000    0.0000000000
 H    0.0000000000    0.0000000000    0.0000000000   -0.0000000000    0.0000000000    0.0000000000
 H    2.7910312803    0.0000000000    0.0000000000   -0.0000316978    0.0000000000    0.0000000000
